 vasp.5.4.4.18Apr17-6-g9f103f2a35 (build Aug 05 2018 06:02:10) complex          
  
 executed on             LinuxIFC date 2018.08.11  11:52:32
 running on   64 total cores
 distrk:  each k-point on   64 cores,    1 groups
 distr:  one band on NCORES_PER_BAND=   8 cores,    8 groups


--------------------------------------------------------------------------------------------------------


 INCAR:
 POTCAR:    PAW_PBE Co 02Aug2007                  
 POTCAR:    PAW_PBE S 06Sep2000                   
 POTCAR:    PAW_PBE Co 02Aug2007                  
   VRHFIN =Co: d8 s1                                                            
   LEXCH  = PE                                                                  
   EATOM  =   813.3670 eV,   59.7808 Ry                                         
                                                                                
   TITEL  = PAW_PBE Co 02Aug2007                                                
   LULTRA =        F    use ultrasoft PP ?                                      
   IUNSCR =        1    unscreen: 0-lin 1-nonlin 2-no                           
   RPACOR =    2.000    partial core radius                                     
   POMASS =   58.933; ZVAL   =    9.000    mass and valenz                      
   RCORE  =    2.300    outmost cutoff radius                                   
   RWIGS  =    2.460; RWIGS  =    1.302    wigner-seitz radius (au A)           
   ENMAX  =  267.968; ENMIN  =  200.976 eV                                      
   RCLOC  =    1.203    cutoff for local pot                                    
   LCOR   =        T    correct aug charges                                     
   LPAW   =        T    paw PP                                                  
   EAUG   =  477.818                                                            
   DEXC   =    0.000                                                            
   RMAX   =    2.360    core radius for proj-oper                               
   RAUG   =    1.300    factor for augmentation sphere                          
   RDEP   =    2.393    radius for radial grids                                 
   RDEPT  =    1.864    core radius for aug-charge                              
                                                                                
   Atomic configuration                                                         
    9 entries                                                                   
     n  l   j            E        occ.                                          
     1  0  0.50     -7587.6674   2.0000                                         
     2  0  0.50      -893.6084   2.0000                                         
     2  1  1.50      -764.5805   6.0000                                         
     3  0  0.50       -97.5973   2.0000                                         
     3  1  1.50       -60.9648   6.0000                                         
     3  2  2.50        -4.2382   8.0000                                         
     4  0  0.50        -4.3746   1.0000                                         
     4  1  1.50        -4.0817   0.0000                                         
     4  3  2.50        -1.3606   0.0000                                         
   Description                                                                  
     l       E           TYP  RCUT    TYP  RCUT                                 
     2     -4.2382362     23  2.300                                             
     2     -5.5988188     23  2.300                                             
     0     -4.3745797     23  2.300                                             
     0      5.7660125     23  2.300                                             
     1     -2.7211652     23  2.300                                             
     1     16.9860234     23  2.300                                             
  local pseudopotential read in
  partial core-charges read in
  partial kinetic energy density read in
  atomic valenz-charges read in
  non local Contribution for L=           2  read in
    real space projection operators read in
  non local Contribution for L=           2  read in
    real space projection operators read in
  non local Contribution for L=           0  read in
    real space projection operators read in
  non local Contribution for L=           0  read in
    real space projection operators read in
  non local Contribution for L=           1  read in
    real space projection operators read in
  non local Contribution for L=           1  read in
    real space projection operators read in
    PAW grid and wavefunctions read in
 
   number of l-projection  operators is LMAX  =           6
   number of lm-projection operators is LMMAX =          18
 
 POTCAR:    PAW_PBE S 06Sep2000                   
   VRHFIN =S : s2p4                                                             
   LEXCH  = PE                                                                  
   EATOM  =   276.8230 eV,   20.3459 Ry                                         
                                                                                
   TITEL  = PAW_PBE S 06Sep2000                                                 
   LULTRA =        F    use ultrasoft PP ?                                      
   IUNSCR =        1    unscreen: 0-lin 1-nonlin 2-no                           
   RPACOR =    1.500    partial core radius                                     
   POMASS =   32.066; ZVAL   =    6.000    mass and valenz                      
   RCORE  =    1.900    outmost cutoff radius                                   
   RWIGS  =    2.200; RWIGS  =    1.164    wigner-seitz radius (au A)           
   ENMAX  =  258.689; ENMIN  =  194.016 eV                                      
   ICORE  =        2    local potential                                         
   LCOR   =        T    correct aug charges                                     
   LPAW   =        T    paw PP                                                  
   EAUG   =  335.092                                                            
   DEXC   =    0.000                                                            
   RMAX   =    1.942    core radius for proj-oper                               
   RAUG   =    1.300    factor for augmentation sphere                          
   RDEP   =    1.954    radius for radial grids                                 
   RDEPT  =    1.744    core radius for aug-charge                              
                                                                                
   Atomic configuration                                                         
    6 entries                                                                   
     n  l   j            E        occ.                                          
     1  0  0.50     -2405.8406   2.0000                                         
     2  0  0.50      -211.7007   2.0000                                         
     2  1  1.50      -156.4958   6.0000                                         
     3  0  0.50       -17.2562   2.0000                                         
     3  1  0.50        -7.0085   4.0000                                         
     3  2  1.50        -6.8029   0.0000                                         
   Description                                                                  
     l       E           TYP  RCUT    TYP  RCUT                                 
     0    -17.2561641     23  1.900                                             
     0    -15.8743224     23  1.900                                             
     1     -7.0085400     23  1.900                                             
     1     -2.7779785     23  1.900                                             
     2     -6.8029130     23  1.900                                             
  local pseudopotential read in
  partial core-charges read in
  partial kinetic energy density read in
  atomic valenz-charges read in
  non local Contribution for L=           0  read in
    real space projection operators read in
  non local Contribution for L=           0  read in
    real space projection operators read in
  non local Contribution for L=           1  read in
    real space projection operators read in
  non local Contribution for L=           1  read in
    real space projection operators read in
    PAW grid and wavefunctions read in
 
   number of l-projection  operators is LMAX  =           4
   number of lm-projection operators is LMMAX =           8
 
  PAW_PBE Co 02Aug2007                  :
 energy of atom  1       EATOM= -813.3670
 kinetic energy error for atom=    0.0026 (will be added to EATOM!!)
  PAW_PBE S 06Sep2000                   :
 energy of atom  2       EATOM= -276.8230
 kinetic energy error for atom=    0.0012 (will be added to EATOM!!)
 
 
 POSCAR: CoS2_mp-2070_conventional_standard\(0\1\
  positions in direct lattice
  velocities in cartesian coordinates
  No initial velocities read in
 exchange correlation table for  LEXCH =        8
   RHO(1)=    0.500       N(1)  =     2000
   RHO(2)=  100.500       N(2)  =     4000
 


--------------------------------------------------------------------------------------------------------


 ion  position               nearest neighbor table
   1  0.500  0.500  0.534-   3 2.31   4 2.31   5 2.31   6 2.31
   2  0.000  0.000  0.534-   3 2.31   4 2.31   5 2.31   6 2.31
   3  0.888  0.388  0.569-   6 2.14   2 2.31   1 2.31
   4  0.388  0.112  0.500-   5 2.14   2 2.31   1 2.31
   5  0.612  0.888  0.569-   4 2.14   2 2.31   1 2.31
   6  0.112  0.612  0.500-   3 2.14   2 2.31   1 2.31
 
  LATTYP: Found a simple tetragonal cell.
 ALAT       =     5.5064007100
 C/A-ratio  =     3.2689230131
  
  Lattice vectors:
  
 A1 = (   5.5064007100,   0.0000000000,   0.0000000000)
 A2 = (   0.0000000000,   5.5064007100,   0.0000000000)
 A3 = (   0.0000000000,   0.0000000000,  18.0000000000)


Analysis of symmetry for initial positions (statically):
=====================================================================
 Subroutine PRICEL returns:
 Original cell was already a primitive cell.
 

 Routine SETGRP: Setting up the symmetry group for a 
 simple tetragonal supercell.


 Subroutine GETGRP returns: Found  4 space group operations
 (whereof  1 operations were pure point group operations)
 out of a pool of 16 trial point group operations.


The static configuration has the point symmetry C_1 .
 The point group associated with its full space group is C_2h.


Analysis of symmetry for dynamics (positions and initial velocities):
=====================================================================
 Subroutine PRICEL returns:
 Original cell was already a primitive cell.
 

 Routine SETGRP: Setting up the symmetry group for a 
 simple tetragonal supercell.


 Subroutine GETGRP returns: Found  4 space group operations
 (whereof  1 operations were pure point group operations)
 out of a pool of 16 trial point group operations.


The dynamic configuration has the point symmetry C_1 .
 The point group associated with its full space group is C_2h.


Analysis of structural, dynamic, and magnetic symmetry:
=====================================================================
 Subroutine PRICEL returns:
 Original cell was already a primitive cell.
 

 Routine SETGRP: Setting up the symmetry group for a 
 simple tetragonal supercell.


 Subroutine GETGRP returns: Found  4 space group operations
 (whereof  1 operations were pure point group operations)
 out of a pool of 16 trial point group operations.


The magnetic configuration has the point symmetry C_1 .
 The point group associated with its full space group is C_2h.


 Subroutine INISYM returns: Found  4 space group operations
 (whereof  1 operations are pure point group operations),
 and found     1 'primitive' translations

 
 
 KPOINTS: bulk automatic                          

Automatic generation of k-mesh.
Space group operators:
 irot       det(A)        alpha          n_x          n_y          n_z        tau_x        tau_y        tau_z
    1     1.000000     0.000000     1.000000     0.000000     0.000000     0.000000     0.000000     0.000000
    2    -1.000000     0.000000     1.000000     0.000000     0.000000     0.000000     0.000000     0.068589
    3     1.000000   180.000000     1.000000     0.000000     0.000000     0.500000     0.500000     0.068589
    4    -1.000000   180.000000     1.000000     0.000000     0.000000     0.500000     0.500000     0.000000
 
 Subroutine IBZKPT returns following result:
 ===========================================
 
 Found     49 irreducible k-points:
 
 Following reciprocal coordinates:
            Coordinates               Weight
  0.000000  0.000000  0.000000      1.000000
  0.083333  0.000000  0.000000      2.000000
  0.166667  0.000000  0.000000      2.000000
  0.250000  0.000000  0.000000      2.000000
  0.333333  0.000000  0.000000      2.000000
  0.416667  0.000000  0.000000      2.000000
  0.500000  0.000000  0.000000      1.000000
  0.000000  0.083333  0.000000      2.000000
  0.083333  0.083333  0.000000      4.000000
  0.166667  0.083333  0.000000      4.000000
  0.250000  0.083333  0.000000      4.000000
  0.333333  0.083333  0.000000      4.000000
  0.416667  0.083333  0.000000      4.000000
  0.500000  0.083333  0.000000      2.000000
  0.000000  0.166667  0.000000      2.000000
  0.083333  0.166667  0.000000      4.000000
  0.166667  0.166667  0.000000      4.000000
  0.250000  0.166667  0.000000      4.000000
  0.333333  0.166667  0.000000      4.000000
  0.416667  0.166667  0.000000      4.000000
  0.500000  0.166667  0.000000      2.000000
  0.000000  0.250000  0.000000      2.000000
  0.083333  0.250000  0.000000      4.000000
  0.166667  0.250000  0.000000      4.000000
  0.250000  0.250000  0.000000      4.000000
  0.333333  0.250000  0.000000      4.000000
  0.416667  0.250000  0.000000      4.000000
  0.500000  0.250000  0.000000      2.000000
  0.000000  0.333333  0.000000      2.000000
  0.083333  0.333333  0.000000      4.000000
  0.166667  0.333333  0.000000      4.000000
  0.250000  0.333333  0.000000      4.000000
  0.333333  0.333333  0.000000      4.000000
  0.416667  0.333333  0.000000      4.000000
  0.500000  0.333333  0.000000      2.000000
  0.000000  0.416667  0.000000      2.000000
  0.083333  0.416667  0.000000      4.000000
  0.166667  0.416667  0.000000      4.000000
  0.250000  0.416667  0.000000      4.000000
  0.333333  0.416667  0.000000      4.000000
  0.416667  0.416667  0.000000      4.000000
  0.500000  0.416667  0.000000      2.000000
  0.000000  0.500000  0.000000      1.000000
  0.083333  0.500000  0.000000      2.000000
  0.166667  0.500000  0.000000      2.000000
  0.250000  0.500000  0.000000      2.000000
  0.333333  0.500000  0.000000      2.000000
  0.416667  0.500000  0.000000      2.000000
  0.500000  0.500000  0.000000      1.000000
 
 Following cartesian coordinates:
            Coordinates               Weight
  0.000000  0.000000  0.000000      1.000000
  0.015134  0.000000  0.000000      2.000000
  0.030268  0.000000  0.000000      2.000000
  0.045402  0.000000  0.000000      2.000000
  0.060536  0.000000  0.000000      2.000000
  0.075670  0.000000  0.000000      2.000000
  0.090803  0.000000  0.000000      1.000000
  0.000000  0.015134  0.000000      2.000000
  0.015134  0.015134  0.000000      4.000000
  0.030268  0.015134  0.000000      4.000000
  0.045402  0.015134  0.000000      4.000000
  0.060536  0.015134  0.000000      4.000000
  0.075670  0.015134  0.000000      4.000000
  0.090803  0.015134  0.000000      2.000000
  0.000000  0.030268  0.000000      2.000000
  0.015134  0.030268  0.000000      4.000000
  0.030268  0.030268  0.000000      4.000000
  0.045402  0.030268  0.000000      4.000000
  0.060536  0.030268  0.000000      4.000000
  0.075670  0.030268  0.000000      4.000000
  0.090803  0.030268  0.000000      2.000000
  0.000000  0.045402  0.000000      2.000000
  0.015134  0.045402  0.000000      4.000000
  0.030268  0.045402  0.000000      4.000000
  0.045402  0.045402  0.000000      4.000000
  0.060536  0.045402  0.000000      4.000000
  0.075670  0.045402  0.000000      4.000000
  0.090803  0.045402  0.000000      2.000000
  0.000000  0.060536  0.000000      2.000000
  0.015134  0.060536  0.000000      4.000000
  0.030268  0.060536  0.000000      4.000000
  0.045402  0.060536  0.000000      4.000000
  0.060536  0.060536  0.000000      4.000000
  0.075670  0.060536  0.000000      4.000000
  0.090803  0.060536  0.000000      2.000000
  0.000000  0.075670  0.000000      2.000000
  0.015134  0.075670  0.000000      4.000000
  0.030268  0.075670  0.000000      4.000000
  0.045402  0.075670  0.000000      4.000000
  0.060536  0.075670  0.000000      4.000000
  0.075670  0.075670  0.000000      4.000000
  0.090803  0.075670  0.000000      2.000000
  0.000000  0.090803  0.000000      1.000000
  0.015134  0.090803  0.000000      2.000000
  0.030268  0.090803  0.000000      2.000000
  0.045402  0.090803  0.000000      2.000000
  0.060536  0.090803  0.000000      2.000000
  0.075670  0.090803  0.000000      2.000000
  0.090803  0.090803  0.000000      1.000000
 


--------------------------------------------------------------------------------------------------------




 Dimension of arrays:
   k-points           NKPTS =     49   k-points in BZ     NKDIM =     49   number of bands    NBANDS=     32
   number of dos      NEDOS =    301   number of ions     NIONS =      6
   non local maximal  LDIM  =      6   non local SUM 2l+1 LMDIM =     18
   total plane-waves  NPLWV = 246960
   max r-space proj   IRMAX =      1   max aug-charges    IRDMAX=  18044
   dimension x,y,z NGX =    42 NGY =   42 NGZ =  140
   dimension x,y,z NGXF=    84 NGYF=   84 NGZF=  280
   support grid    NGXF=    84 NGYF=   84 NGZF=  280
   ions per type =               2   4
   NGX,Y,Z   is equivalent  to a cutoff of  12.68, 12.68, 12.93 a.u.
   NGXF,Y,Z  is equivalent  to a cutoff of  25.36, 25.36, 25.86 a.u.

 SYSTEM =  unknown system                          
 POSCAR =  CoS2_mp-2070_conventional_standard\(0\1\

 Startparameter for this run:
   NWRITE =      2    write-flag & timer
   PREC   = accura    normal or accurate (medium, high low for compatibility)
   ISTART =      0    job   : 0-new  1-cont  2-samecut
   ICHARG =      2    charge: 1-file 2-atom 10-const
   ISPIN  =      2    spin polarized calculation?
   LNONCOLLINEAR =      F non collinear calculations
   LSORBIT =      F    spin-orbit coupling
   INIWAV =      1    electr: 0-lowe 1-rand  2-diag
   LASPH  =      F    aspherical Exc in radial PAW
   METAGGA=      F    non-selfconsistent MetaGGA calc.

 Electronic Relaxation 1
   ENCUT  =  550.0 eV  40.42 Ry    6.36 a.u.  10.53 10.53 34.42*2*pi/ulx,y,z
   ENINI  =  550.0     initial cutoff
   ENAUG  =  477.8 eV  augmentation charge cutoff
   NELM   =    300;   NELMIN=  2; NELMDL=  0     # of ELM steps 
   EDIFF  = 0.1E-05   stopping-criterion for ELM
   LREAL  =      F    real-space projection
   NLSPLINE    = F    spline interpolate recip. space projectors
   LCOMPAT=      F    compatible to vasp.4.4
   GGA_COMPAT  = T    GGA compatible to vasp.4.4-vasp.4.6
   LMAXPAW     = -100 max onsite density
   LMAXMIX     =    4 max onsite mixed and CHGCAR
   VOSKOWN=      0    Vosko Wilk Nusair interpolation
   ROPT   =    0.00000   0.00000
 Ionic relaxation
   EDIFFG = -.1E-01   stopping-criterion for IOM
   NSW    =    200    number of steps for IOM
   NBLOCK =      1;   KBLOCK =    200    inner block; outer block 
   IBRION =      2    ionic relax: 0-MD 1-quasi-New 2-CG
   NFREE  =      1    steps in history (QN), initial steepest desc. (CG)
   ISIF   =      3    stress and relaxation
   IWAVPR =     11    prediction:  0-non 1-charg 2-wave 3-comb
   ISYM   =      2    0-nonsym 1-usesym 2-fastsym
   LCORR  =      T    Harris-Foulkes like correction to forces

   POTIM  = 0.5000    time-step for ionic-motion
   TEIN   =    0.0    initial temperature
   TEBEG  =    0.0;   TEEND  =   0.0 temperature during run
   SMASS  =  -3.00    Nose mass-parameter (am)
   estimated Nose-frequenzy (Omega)   =  0.10E-29 period in steps =****** mass=  -0.693E-27a.u.
   SCALEE = 1.0000    scale energy and forces
   NPACO  =    256;   APACO  = 16.0  distance and # of slots for P.C.
   PSTRESS=    0.0 pullay stress

  Mass of Ions in am
   POMASS =  58.93 32.07
  Ionic Valenz
   ZVAL   =   9.00  6.00
  Atomic Wigner-Seitz radii
   RWIGS  =  -1.00 -1.00
  virtual crystal weights 
   VCA    =   1.00  1.00
   NELECT =      42.0000    total number of electrons
   NUPDOWN=      -1.0000    fix difference up-down

 DOS related values:
   EMIN   =  10.00;   EMAX   =-10.00  energy-range for DOS
   EFERMI =   0.00
   ISMEAR =     0;   SIGMA  =   0.05  broadening in eV -4-tet -1-fermi 0-gaus

 Electronic relaxation 2 (details)
   IALGO  =     38    algorithm
   LDIAG  =      T    sub-space diagonalisation (order eigenvalues)
   LSUBROT=      F    optimize rotation matrix (better conditioning)
   TURBO    =      0    0=normal 1=particle mesh
   IRESTART =      0    0=no restart 2=restart with 2 vectors
   NREBOOT  =      0    no. of reboots
   NMIN     =      0    reboot dimension
   EREF     =   0.00    reference energy to select bands
   IMIX   =      4    mixing-type and parameters
     AMIX     =   0.40;   BMIX     =  1.00
     AMIX_MAG =   1.60;   BMIX_MAG =  1.00
     AMIN     =   0.10
     WC   =   100.;   INIMIX=   1;  MIXPRE=   1;  MAXMIX= -45

 Intra band minimization:
   WEIMIN = 0.0010     energy-eigenvalue tresh-hold
   EBREAK =  0.78E-08  absolut break condition
   DEPER  =   0.30     relativ break condition  

   TIME   =   0.40     timestep for ELM

  volume/ion in A,a.u.               =      90.96       613.84
  Fermi-wavevector in a.u.,A,eV,Ry     =   0.696341  1.315893  6.597337  0.484891
  Thomas-Fermi vector in A             =   1.779364
 
 Write flags
   LWAVE        =      F    write WAVECAR
   LDOWNSAMPLE  =      F    k-point downsampling of WAVECAR
   LCHARG       =      F    write CHGCAR
   LVTOT        =      F    write LOCPOT, total local potential
   LVHAR        =      F    write LOCPOT, Hartree potential only
   LELF         =      F    write electronic localiz. function (ELF)
   LORBIT       =      0    0 simple, 1 ext, 2 COOP (PROOUT), +10 PAW based schemes


 Dipole corrections
   LMONO  =      F    monopole corrections only (constant potential shift)
   LDIPOL =      F    correct potential (dipole corrections)
   IDIPOL =      0    1-x, 2-y, 3-z, 4-all directions 
   EPSILON=  1.0000000 bulk dielectric constant

 LDA+U is selected, type is set to LDAUTYPE =  2
   angular momentum for each species LDAUL =     2   -1
   U (eV)           for each species LDAUU =   3.3  0.0
   J (eV)           for each species LDAUJ =   0.0  0.0
 Exchange correlation treatment:
   GGA     =    --    GGA type
   LEXCH   =     8    internal setting for exchange type
   VOSKOWN=      0    Vosko Wilk Nusair interpolation
   LHFCALC =     F    Hartree Fock is set to
   LHFONE  =     F    Hartree Fock one center treatment
   AEXX    =    0.0000 exact exchange contribution

 Linear response parameters
   LEPSILON=     F    determine dielectric tensor
   LRPA    =     F    only Hartree local field effects (RPA)
   LNABLA  =     F    use nabla operator in PAW spheres
   LVEL    =     F    velocity operator in full k-point grid
   LINTERFAST=   F  fast interpolation
   KINTER  =     0    interpolate to denser k-point grid
   CSHIFT  =0.1000    complex shift for real part using Kramers Kronig
   OMEGAMAX=  -1.0    maximum frequency
   DEG_THRESHOLD= 0.2000000E-02 threshold for treating states as degnerate
   RTIME   =   -0.100 relaxation time in fs
  (WPLASMAI=    0.000 imaginary part of plasma frequency in eV, 0.658/RTIME)
   DFIELD  = 0.0000000 0.0000000 0.0000000 field for delta impulse in time
 
 Orbital magnetization related:
   ORBITALMAG=     F  switch on orbital magnetization
   LCHIMAG   =     F  perturbation theory with respect to B field
   DQ        =  0.001000  dq finite difference perturbation B field
   LLRAUG    =     F  two centre corrections for induced B field



--------------------------------------------------------------------------------------------------------


 conjugate gradient relaxation of ions
 charge density and potential will be updated during run
 spin polarized calculation
 Variant of blocked Davidson
 Davidson routine will perform the subspace rotation
 perform sub-space diagonalisation
    after iterative eigenvector-optimisation
 modified Broyden-mixing scheme, WC =      100.0
 initial mixing is a Kerker type mixing with AMIX =  0.4000 and BMIX =      1.0000
 Hartree-type preconditioning will be used
 using additional bands           11
 reciprocal scheme for non local part
 use partial core corrections
 calculate Harris-corrections to forces 
   (improved forces if not selfconsistent)
 use gradient corrections 
 use of overlap-Matrix (Vanderbilt PP)
 Gauss-broadening in eV      SIGMA  =   0.05


--------------------------------------------------------------------------------------------------------


  energy-cutoff  :  550.000000
  volume of cell :  545.768078
      direct lattice vectors                 reciprocal lattice vectors
     5.506400710  0.000000000  0.000000000     0.181606834  0.000000000  0.000000000
     0.000000000  5.506400710  0.000000000     0.000000000  0.181606834  0.000000000
     0.000000000  0.000000000 18.000000000     0.000000000  0.000000000  0.055555556

  length of vectors
     5.506400710  5.506400710 18.000000000     0.181606834  0.181606834  0.055555556


 
 k-points in units of 2pi/SCALE and weight: bulk automatic                          
   0.00000000  0.00000000  0.00000000       0.007
   0.01513390  0.00000000  0.00000000       0.014
   0.03026781  0.00000000  0.00000000       0.014
   0.04540171  0.00000000  0.00000000       0.014
   0.06053561  0.00000000  0.00000000       0.014
   0.07566951  0.00000000  0.00000000       0.014
   0.09080342  0.00000000  0.00000000       0.007
   0.00000000  0.01513390  0.00000000       0.014
   0.01513390  0.01513390  0.00000000       0.028
   0.03026781  0.01513390  0.00000000       0.028
   0.04540171  0.01513390  0.00000000       0.028
   0.06053561  0.01513390  0.00000000       0.028
   0.07566951  0.01513390  0.00000000       0.028
   0.09080342  0.01513390  0.00000000       0.014
   0.00000000  0.03026781  0.00000000       0.014
   0.01513390  0.03026781  0.00000000       0.028
   0.03026781  0.03026781  0.00000000       0.028
   0.04540171  0.03026781  0.00000000       0.028
   0.06053561  0.03026781  0.00000000       0.028
   0.07566951  0.03026781  0.00000000       0.028
   0.09080342  0.03026781  0.00000000       0.014
   0.00000000  0.04540171  0.00000000       0.014
   0.01513390  0.04540171  0.00000000       0.028
   0.03026781  0.04540171  0.00000000       0.028
   0.04540171  0.04540171  0.00000000       0.028
   0.06053561  0.04540171  0.00000000       0.028
   0.07566951  0.04540171  0.00000000       0.028
   0.09080342  0.04540171  0.00000000       0.014
   0.00000000  0.06053561  0.00000000       0.014
   0.01513390  0.06053561  0.00000000       0.028
   0.03026781  0.06053561  0.00000000       0.028
   0.04540171  0.06053561  0.00000000       0.028
   0.06053561  0.06053561  0.00000000       0.028
   0.07566951  0.06053561  0.00000000       0.028
   0.09080342  0.06053561  0.00000000       0.014
   0.00000000  0.07566951  0.00000000       0.014
   0.01513390  0.07566951  0.00000000       0.028
   0.03026781  0.07566951  0.00000000       0.028
   0.04540171  0.07566951  0.00000000       0.028
   0.06053561  0.07566951  0.00000000       0.028
   0.07566951  0.07566951  0.00000000       0.028
   0.09080342  0.07566951  0.00000000       0.014
   0.00000000  0.09080342  0.00000000       0.007
   0.01513390  0.09080342  0.00000000       0.014
   0.03026781  0.09080342  0.00000000       0.014
   0.04540171  0.09080342  0.00000000       0.014
   0.06053561  0.09080342  0.00000000       0.014
   0.07566951  0.09080342  0.00000000       0.014
   0.09080342  0.09080342  0.00000000       0.007
 
 k-points in reciprocal lattice and weights: bulk automatic                          
   0.00000000  0.00000000  0.00000000       0.007
   0.08333333  0.00000000  0.00000000       0.014
   0.16666667  0.00000000  0.00000000       0.014
   0.25000000  0.00000000  0.00000000       0.014
   0.33333333  0.00000000  0.00000000       0.014
   0.41666667  0.00000000  0.00000000       0.014
   0.50000000  0.00000000  0.00000000       0.007
   0.00000000  0.08333333  0.00000000       0.014
   0.08333333  0.08333333  0.00000000       0.028
   0.16666667  0.08333333  0.00000000       0.028
   0.25000000  0.08333333  0.00000000       0.028
   0.33333333  0.08333333  0.00000000       0.028
   0.41666667  0.08333333  0.00000000       0.028
   0.50000000  0.08333333  0.00000000       0.014
   0.00000000  0.16666667  0.00000000       0.014
   0.08333333  0.16666667  0.00000000       0.028
   0.16666667  0.16666667  0.00000000       0.028
   0.25000000  0.16666667  0.00000000       0.028
   0.33333333  0.16666667  0.00000000       0.028
   0.41666667  0.16666667  0.00000000       0.028
   0.50000000  0.16666667  0.00000000       0.014
   0.00000000  0.25000000  0.00000000       0.014
   0.08333333  0.25000000  0.00000000       0.028
   0.16666667  0.25000000  0.00000000       0.028
   0.25000000  0.25000000  0.00000000       0.028
   0.33333333  0.25000000  0.00000000       0.028
   0.41666667  0.25000000  0.00000000       0.028
   0.50000000  0.25000000  0.00000000       0.014
   0.00000000  0.33333333  0.00000000       0.014
   0.08333333  0.33333333  0.00000000       0.028
   0.16666667  0.33333333  0.00000000       0.028
   0.25000000  0.33333333  0.00000000       0.028
   0.33333333  0.33333333  0.00000000       0.028
   0.41666667  0.33333333  0.00000000       0.028
   0.50000000  0.33333333  0.00000000       0.014
   0.00000000  0.41666667  0.00000000       0.014
   0.08333333  0.41666667  0.00000000       0.028
   0.16666667  0.41666667  0.00000000       0.028
   0.25000000  0.41666667  0.00000000       0.028
   0.33333333  0.41666667  0.00000000       0.028
   0.41666667  0.41666667  0.00000000       0.028
   0.50000000  0.41666667  0.00000000       0.014
   0.00000000  0.50000000  0.00000000       0.007
   0.08333333  0.50000000  0.00000000       0.014
   0.16666667  0.50000000  0.00000000       0.014
   0.25000000  0.50000000  0.00000000       0.014
   0.33333333  0.50000000  0.00000000       0.014
   0.41666667  0.50000000  0.00000000       0.014
   0.50000000  0.50000000  0.00000000       0.007
 
 position of ions in fractional coordinates (direct lattice) 
   0.50000000  0.50000000  0.53429442
   0.00000000  0.00000000  0.53429442
   0.88789300  0.38789300  0.56858918
   0.38789300  0.11210700  0.49999966
   0.61210700  0.88789300  0.56858918
   0.11210700  0.61210700  0.49999966
 
 position of ions in cartesian coordinates  (Angst):
   2.75320036  2.75320036  9.61729962
   0.00000000  0.00000000  9.61729962
   4.88909465  2.13589429 10.23460527
   2.13589429  0.61730606  8.99999397
   3.37050642  4.88909465 10.23460527
   0.61730606  3.37050642  8.99999397
 


--------------------------------------------------------------------------------------------------------


 k-point  1 :   0.0000 0.0000 0.0000  plane waves:   16057
 k-point  2 :   0.0833 0.0000 0.0000  plane waves:   16021
 k-point  3 :   0.1667 0.0000 0.0000  plane waves:   16001
 k-point  4 :   0.2500 0.0000 0.0000  plane waves:   15991
 k-point  5 :   0.3333 0.0000 0.0000  plane waves:   15973
 k-point  6 :   0.4167 0.0000 0.0000  plane waves:   15973
 k-point  7 :   0.5000 0.0000 0.0000  plane waves:   15994
 k-point  8 :   0.0000 0.0833 0.0000  plane waves:   16021
 k-point  9 :   0.0833 0.0833 0.0000  plane waves:   16013
 k-point 10 :   0.1667 0.0833 0.0000  plane waves:   15998
 k-point 11 :   0.2500 0.0833 0.0000  plane waves:   16001
 k-point 12 :   0.3333 0.0833 0.0000  plane waves:   15987
 k-point 13 :   0.4167 0.0833 0.0000  plane waves:   15990
 k-point 14 :   0.5000 0.0833 0.0000  plane waves:   15994
 k-point 15 :   0.0000 0.1667 0.0000  plane waves:   16001
 k-point 16 :   0.0833 0.1667 0.0000  plane waves:   15998
 k-point 17 :   0.1667 0.1667 0.0000  plane waves:   15985
 k-point 18 :   0.2500 0.1667 0.0000  plane waves:   15988
 k-point 19 :   0.3333 0.1667 0.0000  plane waves:   15995
 k-point 20 :   0.4167 0.1667 0.0000  plane waves:   15980
 k-point 21 :   0.5000 0.1667 0.0000  plane waves:   15986
 k-point 22 :   0.0000 0.2500 0.0000  plane waves:   15991
 k-point 23 :   0.0833 0.2500 0.0000  plane waves:   16001
 k-point 24 :   0.1667 0.2500 0.0000  plane waves:   15988
 k-point 25 :   0.2500 0.2500 0.0000  plane waves:   15977
 k-point 26 :   0.3333 0.2500 0.0000  plane waves:   15992
 k-point 27 :   0.4167 0.2500 0.0000  plane waves:   15979
 k-point 28 :   0.5000 0.2500 0.0000  plane waves:   15964
 k-point 29 :   0.0000 0.3333 0.0000  plane waves:   15973
 k-point 30 :   0.0833 0.3333 0.0000  plane waves:   15987
 k-point 31 :   0.1667 0.3333 0.0000  plane waves:   15995
 k-point 32 :   0.2500 0.3333 0.0000  plane waves:   15992
 k-point 33 :   0.3333 0.3333 0.0000  plane waves:   15971
 k-point 34 :   0.4167 0.3333 0.0000  plane waves:   15960
 k-point 35 :   0.5000 0.3333 0.0000  plane waves:   15950
 k-point 36 :   0.0000 0.4167 0.0000  plane waves:   15973
 k-point 37 :   0.0833 0.4167 0.0000  plane waves:   15990
 k-point 38 :   0.1667 0.4167 0.0000  plane waves:   15980
 k-point 39 :   0.2500 0.4167 0.0000  plane waves:   15979
 k-point 40 :   0.3333 0.4167 0.0000  plane waves:   15960
 k-point 41 :   0.4167 0.4167 0.0000  plane waves:   15941
 k-point 42 :   0.5000 0.4167 0.0000  plane waves:   15924
 k-point 43 :   0.0000 0.5000 0.0000  plane waves:   15994
 k-point 44 :   0.0833 0.5000 0.0000  plane waves:   15994
 k-point 45 :   0.1667 0.5000 0.0000  plane waves:   15986
 k-point 46 :   0.2500 0.5000 0.0000  plane waves:   15964
 k-point 47 :   0.3333 0.5000 0.0000  plane waves:   15950
 k-point 48 :   0.4167 0.5000 0.0000  plane waves:   15924
 k-point 49 :   0.5000 0.5000 0.0000  plane waves:   15956

 maximum and minimum number of plane-waves per node :      2025     1968

 maximum number of plane-waves:     16057
 maximum index in each direction: 
   IXMAX=   10   IYMAX=   10   IZMAX=   34
   IXMIN=  -11   IYMIN=  -11   IZMIN=  -34


 parallel 3D FFT for wavefunctions:
    minimum data exchange during FFTs selected (reduces bandwidth)
 parallel 3D FFT for charge:
    minimum data exchange during FFTs selected (reduces bandwidth)


 total amount of memory used by VASP MPI-rank0    80752. kBytes
=======================================================================

   base      :      30000. kBytes
   nonl-proj :      28756. kBytes
   fftplans  :       2505. kBytes
   grid      :       6615. kBytes
   one-center:         31. kBytes
   wavefun   :      12845. kBytes
 
     INWAV:  cpu time    0.0000: real time    0.0006
 Broyden mixing: mesh for mixing (old mesh)
   NGX = 21   NGY = 21   NGZ = 69
  (NGX  = 84   NGY  = 84   NGZ  =280)
  gives a total of  30429 points

 initial charge density was supplied:
 charge density of overlapping atoms calculated
 number of electron      42.0000000 magnetization       6.0000000
 keeping initial charge density in first step


--------------------------------------------------------------------------------------------------------


 Maximum index for augmentation-charges          816 (set IRDMAX)


--------------------------------------------------------------------------------------------------------


 First call to EWALD:  gamma=   0.217
 Maximum number of real-space cells 4x 4x 2
 Maximum number of reciprocal cells 2x 2x 5

    FEWALD:  cpu time    0.0016: real time    0.0016


--------------------------------------- Iteration      1(   1)  ---------------------------------------


    POTLOK:  cpu time    0.2040: real time    0.2105
    SETDIJ:  cpu time    0.0057: real time    0.0058
atom =   1  type =  1  l = 2
 
 onsite density matrix
 
spin component  1
 
  0.9891  0.0000  0.0000  0.0000  0.0000
  0.0000  0.9891  0.0000  0.0000  0.0000
  0.0000  0.0000  0.9891  0.0000  0.0000
  0.0000  0.0000  0.0000  0.9891  0.0000
  0.0000  0.0000  0.0000  0.0000  0.9891
 
spin component  2
 
  0.4945  0.0000  0.0000  0.0000  0.0000
  0.0000  0.4945  0.0000  0.0000  0.0000
  0.0000  0.0000  0.4945  0.0000  0.0000
  0.0000  0.0000  0.0000  0.4945  0.0000
  0.0000  0.0000  0.0000  0.0000  0.4945
 
 occupancies and eigenvectors
 
  o =  0.4945  v =  0.0000  0.0000  0.0000  0.0000  0.0000  1.0000  0.0000  0.0000  0.0000  0.0000      0.0000  0.0000  0.0000  0.0000  0.0000  0.0000  0.0000  0.0000  0.0000  0.0000
  o =  0.4945  v =  0.0000  0.0000  0.0000  0.0000  0.0000  0.0000  1.0000  0.0000  0.0000  0.0000      0.0000  0.0000  0.0000  0.0000  0.0000  0.0000  0.0000  0.0000  0.0000  0.0000
  o =  0.4945  v =  0.0000  0.0000  0.0000  0.0000  0.0000  0.0000  0.0000  1.0000  0.0000  0.0000      0.0000  0.0000  0.0000  0.0000  0.0000  0.0000  0.0000  0.0000  0.0000  0.0000
  o =  0.4945  v =  0.0000  0.0000  0.0000  0.0000  0.0000  0.0000  0.0000  0.0000  1.0000  0.0000      0.0000  0.0000  0.0000  0.0000  0.0000  0.0000  0.0000  0.0000  0.0000  0.0000
  o =  0.4945  v =  0.0000  0.0000  0.0000  0.0000  0.0000  0.0000  0.0000  0.0000  0.0000  1.0000      0.0000  0.0000  0.0000  0.0000  0.0000  0.0000  0.0000  0.0000  0.0000  0.0000
  o =  0.9891  v =  1.0000  0.0000  0.0000  0.0000  0.0000  0.0000  0.0000  0.0000  0.0000  0.0000      0.0000  0.0000  0.0000  0.0000  0.0000  0.0000  0.0000  0.0000  0.0000  0.0000
  o =  0.9891  v =  0.0000  1.0000  0.0000  0.0000  0.0000  0.0000  0.0000  0.0000  0.0000  0.0000      0.0000  0.0000  0.0000  0.0000  0.0000  0.0000  0.0000  0.0000  0.0000  0.0000
  o =  0.9891  v =  0.0000  0.0000  1.0000  0.0000  0.0000  0.0000  0.0000  0.0000  0.0000  0.0000      0.0000  0.0000  0.0000  0.0000  0.0000  0.0000  0.0000  0.0000  0.0000  0.0000
  o =  0.9891  v =  0.0000  0.0000  0.0000  1.0000  0.0000  0.0000  0.0000  0.0000  0.0000  0.0000      0.0000  0.0000  0.0000  0.0000  0.0000  0.0000  0.0000  0.0000  0.0000  0.0000
  o =  0.9891  v =  0.0000  0.0000  0.0000  0.0000  1.0000  0.0000  0.0000  0.0000  0.0000  0.0000      0.0000  0.0000  0.0000  0.0000  0.0000  0.0000  0.0000  0.0000  0.0000  0.0000
atom =   2  type =  1  l = 2
 
 onsite density matrix
 
spin component  1
 
  0.9891  0.0000  0.0000  0.0000  0.0000
  0.0000  0.9891  0.0000  0.0000  0.0000
  0.0000  0.0000  0.9891  0.0000  0.0000
  0.0000  0.0000  0.0000  0.9891  0.0000
  0.0000  0.0000  0.0000  0.0000  0.9891
 
spin component  2
 
  0.4945  0.0000  0.0000  0.0000  0.0000
  0.0000  0.4945  0.0000  0.0000  0.0000
  0.0000  0.0000  0.4945  0.0000  0.0000
  0.0000  0.0000  0.0000  0.4945  0.0000
  0.0000  0.0000  0.0000  0.0000  0.4945
 
 occupancies and eigenvectors
 
  o =  0.4945  v =  0.0000  0.0000  0.0000  0.0000  0.0000  1.0000  0.0000  0.0000  0.0000  0.0000      0.0000  0.0000  0.0000  0.0000  0.0000  0.0000  0.0000  0.0000  0.0000  0.0000
  o =  0.4945  v =  0.0000  0.0000  0.0000  0.0000  0.0000  0.0000  1.0000  0.0000  0.0000  0.0000      0.0000  0.0000  0.0000  0.0000  0.0000  0.0000  0.0000  0.0000  0.0000  0.0000
  o =  0.4945  v =  0.0000  0.0000  0.0000  0.0000  0.0000  0.0000  0.0000  1.0000  0.0000  0.0000      0.0000  0.0000  0.0000  0.0000  0.0000  0.0000  0.0000  0.0000  0.0000  0.0000
  o =  0.4945  v =  0.0000  0.0000  0.0000  0.0000  0.0000  0.0000  0.0000  0.0000  1.0000  0.0000      0.0000  0.0000  0.0000  0.0000  0.0000  0.0000  0.0000  0.0000  0.0000  0.0000
  o =  0.4945  v =  0.0000  0.0000  0.0000  0.0000  0.0000  0.0000  0.0000  0.0000  0.0000  1.0000      0.0000  0.0000  0.0000  0.0000  0.0000  0.0000  0.0000  0.0000  0.0000  0.0000
  o =  0.9891  v =  1.0000  0.0000  0.0000  0.0000  0.0000  0.0000  0.0000  0.0000  0.0000  0.0000      0.0000  0.0000  0.0000  0.0000  0.0000  0.0000  0.0000  0.0000  0.0000  0.0000
  o =  0.9891  v =  0.0000  1.0000  0.0000  0.0000  0.0000  0.0000  0.0000  0.0000  0.0000  0.0000      0.0000  0.0000  0.0000  0.0000  0.0000  0.0000  0.0000  0.0000  0.0000  0.0000
  o =  0.9891  v =  0.0000  0.0000  1.0000  0.0000  0.0000  0.0000  0.0000  0.0000  0.0000  0.0000      0.0000  0.0000  0.0000  0.0000  0.0000  0.0000  0.0000  0.0000  0.0000  0.0000
  o =  0.9891  v =  0.0000  0.0000  0.0000  1.0000  0.0000  0.0000  0.0000  0.0000  0.0000  0.0000      0.0000  0.0000  0.0000  0.0000  0.0000  0.0000  0.0000  0.0000  0.0000  0.0000
  o =  0.9891  v =  0.0000  0.0000  0.0000  0.0000  1.0000  0.0000  0.0000  0.0000  0.0000  0.0000      0.0000  0.0000  0.0000  0.0000  0.0000  0.0000  0.0000  0.0000  0.0000  0.0000
     EDDAV:  cpu time    6.4509: real time    6.6064
       DOS:  cpu time    0.0032: real time    0.0033
    --------------------------------------------
      LOOP:  cpu time    6.6638: real time    6.8260

 eigenvalue-minimisations  :  6272
 total energy-change (2. order) : 0.3220660E+03  (-0.1414843E+04)
 number of electron      42.0000000 magnetization       6.0000000
 augmentation part       42.0000000 magnetization       6.0000000

 Free energy of the ion-electron system (eV)
  ---------------------------------------------------
  alpha Z        PSCENC =        14.98780954
  Ewald energy   TEWEN  =      3850.73002878
  -Hartree energ DENC   =     -6295.35493474
  -exchange      EXHF   =         0.00000000
  -V(xc)+E(xc)   XCENC  =        82.22199892
  PAW double counting   =      2309.91816678    -2382.76345008
  entropy T*S    EENTRO =        -0.00641821
  eigenvalues    EBANDS =         8.31652836
  atomic energy  EATOM  =      2734.01625119
  Solvation  Ediel_sol  =         0.00000000
  ---------------------------------------------------
  free energy    TOTEN  =       322.06598054 eV

  energy without entropy =      322.07239874  energy(sigma->0) =      322.06918964


--------------------------------------------------------------------------------------------------------




--------------------------------------- Iteration      1(   2)  ---------------------------------------


     EDDAV:  cpu time    7.6110: real time    7.7946
       DOS:  cpu time    0.0029: real time    0.0030
    --------------------------------------------
      LOOP:  cpu time    7.6140: real time    7.7976

 eigenvalue-minimisations  :  8160
 total energy-change (2. order) :-0.2907793E+03  (-0.2714947E+03)
 number of electron      42.0000000 magnetization       6.0000000
 augmentation part       42.0000000 magnetization       6.0000000

 Free energy of the ion-electron system (eV)
  ---------------------------------------------------
  alpha Z        PSCENC =        14.98780954
  Ewald energy   TEWEN  =      3850.73002878
  -Hartree energ DENC   =     -6295.35493474
  -exchange      EXHF   =         0.00000000
  -V(xc)+E(xc)   XCENC  =        82.22199892
  PAW double counting   =      2309.91816678    -2382.76345008
  entropy T*S    EENTRO =        -0.00933196
  eigenvalues    EBANDS =      -282.45990774
  atomic energy  EATOM  =      2734.01625119
  Solvation  Ediel_sol  =         0.00000000
  ---------------------------------------------------
  free energy    TOTEN  =        31.28663069 eV

  energy without entropy =       31.29596264  energy(sigma->0) =       31.29129666


--------------------------------------------------------------------------------------------------------




--------------------------------------- Iteration      1(   3)  ---------------------------------------


     EDDAV:  cpu time    7.6242: real time    7.8119
       DOS:  cpu time    0.0028: real time    0.0029
    --------------------------------------------
      LOOP:  cpu time    7.6270: real time    7.8148

 eigenvalue-minimisations  :  8192
 total energy-change (2. order) :-0.5618391E+02  (-0.5407651E+02)
 number of electron      42.0000000 magnetization       6.0000000
 augmentation part       42.0000000 magnetization       6.0000000

 Free energy of the ion-electron system (eV)
  ---------------------------------------------------
  alpha Z        PSCENC =        14.98780954
  Ewald energy   TEWEN  =      3850.73002878
  -Hartree energ DENC   =     -6295.35493474
  -exchange      EXHF   =         0.00000000
  -V(xc)+E(xc)   XCENC  =        82.22199892
  PAW double counting   =      2309.91816678    -2382.76345008
  entropy T*S    EENTRO =        -0.01295316
  eigenvalues    EBANDS =      -338.64019926
  atomic energy  EATOM  =      2734.01625119
  Solvation  Ediel_sol  =         0.00000000
  ---------------------------------------------------
  free energy    TOTEN  =       -24.89728204 eV

  energy without entropy =      -24.88432888  energy(sigma->0) =      -24.89080546


--------------------------------------------------------------------------------------------------------




--------------------------------------- Iteration      1(   4)  ---------------------------------------


     EDDAV:  cpu time    7.2849: real time    7.4648
       DOS:  cpu time    0.0029: real time    0.0030
    --------------------------------------------
      LOOP:  cpu time    7.2878: real time    7.4678

 eigenvalue-minimisations  :  7768
 total energy-change (2. order) :-0.2619346E+01  (-0.2577667E+01)
 number of electron      42.0000000 magnetization       6.0000000
 augmentation part       42.0000000 magnetization       6.0000000

 Free energy of the ion-electron system (eV)
  ---------------------------------------------------
  alpha Z        PSCENC =        14.98780954
  Ewald energy   TEWEN  =      3850.73002878
  -Hartree energ DENC   =     -6295.35493474
  -exchange      EXHF   =         0.00000000
  -V(xc)+E(xc)   XCENC  =        82.22199892
  PAW double counting   =      2309.91816678    -2382.76345008
  entropy T*S    EENTRO =        -0.01280341
  eigenvalues    EBANDS =      -341.25969482
  atomic energy  EATOM  =      2734.01625119
  Solvation  Ediel_sol  =         0.00000000
  ---------------------------------------------------
  free energy    TOTEN  =       -27.51662785 eV

  energy without entropy =      -27.50382444  energy(sigma->0) =      -27.51022614


--------------------------------------------------------------------------------------------------------




--------------------------------------- Iteration      1(   5)  ---------------------------------------


     EDDAV:  cpu time    8.0221: real time    8.2182
       DOS:  cpu time    0.0028: real time    0.0028
    CHARGE:  cpu time    0.2874: real time    0.2959
    MIXING:  cpu time    0.0016: real time    0.0017
    --------------------------------------------
      LOOP:  cpu time    8.3139: real time    8.5186

 eigenvalue-minimisations  :  8864
 total energy-change (2. order) :-0.8083858E-01  (-0.8076957E-01)
 number of electron      41.9999988 magnetization       6.0070925
 augmentation part        5.0813778 magnetization       4.6103885

 Broyden mixing:
  rms(total) = 0.27356E+01    rms(broyden)= 0.27355E+01
  rms(prec ) = 0.28729E+01
  weight for this iteration     100.00

 Free energy of the ion-electron system (eV)
  ---------------------------------------------------
  alpha Z        PSCENC =        14.98780954
  Ewald energy   TEWEN  =      3850.73002878
  -Hartree energ DENC   =     -6295.35493474
  -exchange      EXHF   =         0.00000000
  -V(xc)+E(xc)   XCENC  =        82.22199892
  PAW double counting   =      2309.91816678    -2382.76345008
  entropy T*S    EENTRO =        -0.01275211
  eigenvalues    EBANDS =      -341.34058470
  atomic energy  EATOM  =      2734.01625119
  Solvation  Ediel_sol  =         0.00000000
  ---------------------------------------------------
  free energy    TOTEN  =       -27.59746643 eV

  energy without entropy =      -27.58471431  energy(sigma->0) =      -27.59109037


--------------------------------------------------------------------------------------------------------




--------------------------------------- Iteration      1(   6)  ---------------------------------------


    POTLOK:  cpu time    0.1358: real time    0.1405
    SETDIJ:  cpu time    0.0056: real time    0.0057
atom =   1  type =  1  l = 2
 
 onsite density matrix
 
spin component  1
 
  1.0085 -0.0833 -0.0004 -0.0322 -0.0923
 -0.0833  1.0946 -0.0213  0.0048 -0.0323
 -0.0004 -0.0213  1.0447 -0.0854  0.0134
 -0.0322  0.0048 -0.0854  1.0362  0.0133
 -0.0923 -0.0323  0.0134  0.0133  1.0056
 
spin component  2
 
  0.4079  0.1298 -0.0014  0.0514  0.1309
  0.1298  0.2557  0.0363 -0.0102  0.0396
 -0.0014  0.0363  0.3358  0.1424 -0.0153
  0.0514 -0.0102  0.1424  0.3574 -0.0145
  0.1309  0.0396 -0.0153 -0.0145  0.4184
 
 occupancies and eigenvectors
 
  o =  0.1406  v =  0.0000  0.0000  0.0000  0.0000  0.0000  0.4570 -0.6447  0.4239 -0.4254 -0.1222      0.0000  0.0000  0.0000  0.0000  0.0000  0.0000  0.0000  0.0000  0.0000  0.0000
  o =  0.2385  v =  0.0000  0.0000  0.0000  0.0000  0.0000 -0.3141  0.4959  0.6015 -0.5265  0.1282      0.0000  0.0000  0.0000  0.0000  0.0000  0.0000  0.0000  0.0000  0.0000  0.0000
  o =  0.3084  v =  0.0000  0.0000  0.0000  0.0000  0.0000  0.4409  0.4669 -0.1434 -0.1659 -0.7345      0.0000  0.0000  0.0000  0.0000  0.0000  0.0000  0.0000  0.0000  0.0000  0.0000
  o =  0.4953  v =  0.0000  0.0000  0.0000  0.0000  0.0000  0.0200 -0.0104 -0.6540 -0.6980  0.2907      0.0000  0.0000  0.0000  0.0000  0.0000  0.0000  0.0000  0.0000  0.0000  0.0000
  o =  0.5924  v =  0.0000  0.0000  0.0000  0.0000  0.0000  0.7055  0.3469  0.1014  0.1646  0.5870      0.0000  0.0000  0.0000  0.0000  0.0000  0.0000  0.0000  0.0000  0.0000  0.0000
  o =  0.8810  v =  0.7015  0.3673  0.0622  0.1176  0.5960  0.0000  0.0000  0.0000  0.0000  0.0000      0.0000  0.0000  0.0000  0.0000  0.0000  0.0000  0.0000  0.0000  0.0000  0.0000
  o =  0.9488  v = -0.0269 -0.0323 -0.6657 -0.6986  0.2589  0.0000  0.0000  0.0000  0.0000  0.0000      0.0000  0.0000  0.0000  0.0000  0.0000  0.0000  0.0000  0.0000  0.0000  0.0000
  o =  1.0832  v = -0.3694 -0.5432  0.1106  0.2002  0.7185  0.0000  0.0000  0.0000  0.0000  0.0000      0.0000  0.0000  0.0000  0.0000  0.0000  0.0000  0.0000  0.0000  0.0000  0.0000
  o =  1.1084  v = -0.3313  0.3990  0.6349 -0.5421  0.1847  0.0000  0.0000  0.0000  0.0000  0.0000      0.0000  0.0000  0.0000  0.0000  0.0000  0.0000  0.0000  0.0000  0.0000  0.0000
  o =  1.1681  v = -0.5109  0.6402 -0.3711  0.4051  0.1656  0.0000  0.0000  0.0000  0.0000  0.0000      0.0000  0.0000  0.0000  0.0000  0.0000  0.0000  0.0000  0.0000  0.0000  0.0000
atom =   2  type =  1  l = 2
 
 onsite density matrix
 
spin component  1
 
  1.0085  0.0833  0.0004 -0.0322  0.0923
  0.0833  1.0946 -0.0213 -0.0048 -0.0323
  0.0004 -0.0213  1.0447  0.0854  0.0134
 -0.0322 -0.0048  0.0854  1.0362 -0.0133
  0.0923 -0.0323  0.0134 -0.0133  1.0056
 
spin component  2
 
  0.4079 -0.1298  0.0014  0.0514 -0.1309
 -0.1298  0.2557  0.0363  0.0102  0.0396
  0.0014  0.0363  0.3358 -0.1424 -0.0153
  0.0514  0.0102 -0.1424  0.3574  0.0145
 -0.1309  0.0396 -0.0153  0.0145  0.4184
 
 occupancies and eigenvectors
 
  o =  0.1406  v =  0.0000  0.0000  0.0000  0.0000  0.0000 -0.4570 -0.6447  0.4239  0.4254 -0.1222      0.0000  0.0000  0.0000  0.0000  0.0000  0.0000  0.0000  0.0000  0.0000  0.0000
  o =  0.2385  v =  0.0000  0.0000  0.0000  0.0000  0.0000 -0.3141 -0.4959 -0.6015 -0.5265 -0.1282      0.0000  0.0000  0.0000  0.0000  0.0000  0.0000  0.0000  0.0000  0.0000  0.0000
  o =  0.3084  v =  0.0000  0.0000  0.0000  0.0000  0.0000 -0.4409  0.4669 -0.1434  0.1659 -0.7345      0.0000  0.0000  0.0000  0.0000  0.0000  0.0000  0.0000  0.0000  0.0000  0.0000
  o =  0.4953  v =  0.0000  0.0000  0.0000  0.0000  0.0000 -0.0200 -0.0104 -0.6540  0.6980  0.2907      0.0000  0.0000  0.0000  0.0000  0.0000  0.0000  0.0000  0.0000  0.0000  0.0000
  o =  0.5924  v =  0.0000  0.0000  0.0000  0.0000  0.0000  0.7055 -0.3469 -0.1014  0.1646 -0.5870      0.0000  0.0000  0.0000  0.0000  0.0000  0.0000  0.0000  0.0000  0.0000  0.0000
  o =  0.8810  v =  0.7015 -0.3673 -0.0622  0.1176 -0.5960  0.0000  0.0000  0.0000  0.0000  0.0000      0.0000  0.0000  0.0000  0.0000  0.0000  0.0000  0.0000  0.0000  0.0000  0.0000
  o =  0.9488  v =  0.0269 -0.0323 -0.6657  0.6986  0.2589  0.0000  0.0000  0.0000  0.0000  0.0000      0.0000  0.0000  0.0000  0.0000  0.0000  0.0000  0.0000  0.0000  0.0000  0.0000
  o =  1.0832  v = -0.3694  0.5432 -0.1106  0.2002 -0.7185  0.0000  0.0000  0.0000  0.0000  0.0000      0.0000  0.0000  0.0000  0.0000  0.0000  0.0000  0.0000  0.0000  0.0000  0.0000
  o =  1.1084  v = -0.3313 -0.3990 -0.6349 -0.5421 -0.1847  0.0000  0.0000  0.0000  0.0000  0.0000      0.0000  0.0000  0.0000  0.0000  0.0000  0.0000  0.0000  0.0000  0.0000  0.0000
  o =  1.1681  v = -0.5109 -0.6402  0.3711  0.4051 -0.1656  0.0000  0.0000  0.0000  0.0000  0.0000      0.0000  0.0000  0.0000  0.0000  0.0000  0.0000  0.0000  0.0000  0.0000  0.0000
     EDDAV:  cpu time    7.6357: real time    7.8201
       DOS:  cpu time    0.0030: real time    0.0030
    CHARGE:  cpu time    0.2270: real time    0.2348
    MIXING:  cpu time    0.0019: real time    0.0019
    --------------------------------------------
      LOOP:  cpu time    8.0089: real time    8.2060

 eigenvalue-minimisations  :  8224
 total energy-change (2. order) :-0.9745040E+01  (-0.6715169E+01)
 number of electron      41.9999986 magnetization       5.7281079
 augmentation part       11.3131432 magnetization       6.0577661

 Broyden mixing:
  rms(total) = 0.49004E+01    rms(broyden)= 0.49004E+01
  rms(prec ) = 0.51810E+01
  weight for this iteration     100.00

 eigenvalues of (default mixing * dielectric matrix)
  average eigenvalue GAMMA=   0.2371
  0.2371

 Free energy of the ion-electron system (eV)
  ---------------------------------------------------
  alpha Z        PSCENC =        14.98780954
  Ewald energy   TEWEN  =      3850.73002878
  -Hartree energ DENC   =     -6234.47231708
  -exchange      EXHF   =         0.00000000
  -V(xc)+E(xc)   XCENC  =        82.40850792
  PAW double counting   =      2866.05598385    -2920.94231357
  entropy T*S    EENTRO =        -0.00150359
  eigenvalues    EBANDS =      -430.12495323
  atomic energy  EATOM  =      2734.01625119
  Solvation  Ediel_sol  =         0.00000000
  ---------------------------------------------------
  free energy    TOTEN  =       -37.34250620 eV

  energy without entropy =      -37.34100261  energy(sigma->0) =      -37.34175441


--------------------------------------------------------------------------------------------------------




--------------------------------------- Iteration      1(   7)  ---------------------------------------


    POTLOK:  cpu time    0.1876: real time    0.3450
    SETDIJ:  cpu time    0.0055: real time    0.0056
atom =   1  type =  1  l = 2
 
 onsite density matrix
 
spin component  1
 
  0.9125 -0.0348 -0.0006 -0.0176 -0.0561
 -0.0348  0.9412 -0.0087  0.0006 -0.0216
 -0.0006 -0.0087  0.9180 -0.0371  0.0067
 -0.0176  0.0006 -0.0371  0.9155  0.0124
 -0.0561 -0.0216  0.0067  0.0124  0.9213
 
spin component  2
 
  0.5497  0.0748 -0.0010  0.0362  0.0989
  0.0748  0.4683  0.0211 -0.0042  0.0316
 -0.0010  0.0211  0.5192  0.0871 -0.0082
  0.0362 -0.0042  0.0871  0.5334 -0.0173
  0.0989  0.0316 -0.0082 -0.0173  0.5419
 
 occupancies and eigenvectors
 
  o =  0.3938  v =  0.0000  0.0000  0.0000  0.0000  0.0000 -0.5410  0.5588 -0.3757  0.4250  0.2709      0.0000  0.0000  0.0000  0.0000  0.0000  0.0000  0.0000  0.0000  0.0000  0.0000
  o =  0.4596  v =  0.0000  0.0000  0.0000  0.0000  0.0000 -0.3643  0.3419  0.6503 -0.5072  0.2651      0.0000  0.0000  0.0000  0.0000  0.0000  0.0000  0.0000  0.0000  0.0000  0.0000
  o =  0.4654  v =  0.0000  0.0000  0.0000  0.0000  0.0000  0.2653  0.6689 -0.0704 -0.1787 -0.6673      0.0000  0.0000  0.0000  0.0000  0.0000  0.0000  0.0000  0.0000  0.0000  0.0000
  o =  0.6180  v =  0.0000  0.0000  0.0000  0.0000  0.0000  0.0321  0.0024 -0.6484 -0.7097  0.2736      0.0000  0.0000  0.0000  0.0000  0.0000  0.0000  0.0000  0.0000  0.0000  0.0000
  o =  0.6758  v =  0.0000  0.0000  0.0000  0.0000  0.0000 -0.7094 -0.3514 -0.1031 -0.1626 -0.5798      0.0000  0.0000  0.0000  0.0000  0.0000  0.0000  0.0000  0.0000  0.0000  0.0000
  o =  0.8436  v = -0.6999 -0.3839 -0.0403 -0.0863 -0.5948  0.0000  0.0000  0.0000  0.0000  0.0000      0.0000  0.0000  0.0000  0.0000  0.0000  0.0000  0.0000  0.0000  0.0000  0.0000
  o =  0.8757  v = -0.0444 -0.0332 -0.6664 -0.7097  0.2218  0.0000  0.0000  0.0000  0.0000  0.0000      0.0000  0.0000  0.0000  0.0000  0.0000  0.0000  0.0000  0.0000  0.0000  0.0000
  o =  0.9464  v = -0.2510  0.4814  0.6126 -0.5738  0.0264  0.0000  0.0000  0.0000  0.0000  0.0000      0.0000  0.0000  0.0000  0.0000  0.0000  0.0000  0.0000  0.0000  0.0000  0.0000
  o =  0.9587  v =  0.0763  0.7243 -0.3788  0.1444 -0.5525  0.0000  0.0000  0.0000  0.0000  0.0000      0.0000  0.0000  0.0000  0.0000  0.0000  0.0000  0.0000  0.0000  0.0000  0.0000
  o =  0.9841  v =  0.6629 -0.3086  0.1884 -0.3726 -0.5395  0.0000  0.0000  0.0000  0.0000  0.0000      0.0000  0.0000  0.0000  0.0000  0.0000  0.0000  0.0000  0.0000  0.0000  0.0000
atom =   2  type =  1  l = 2
 
 onsite density matrix
 
spin component  1
 
  0.9125  0.0348  0.0006 -0.0176  0.0561
  0.0348  0.9412 -0.0087 -0.0006 -0.0216
  0.0006 -0.0087  0.9180  0.0371  0.0067
 -0.0176 -0.0006  0.0371  0.9155 -0.0124
  0.0561 -0.0216  0.0067 -0.0124  0.9213
 
spin component  2
 
  0.5497 -0.0748  0.0010  0.0362 -0.0989
 -0.0748  0.4683  0.0211  0.0042  0.0316
  0.0010  0.0211  0.5192 -0.0871 -0.0082
  0.0362  0.0042 -0.0871  0.5334  0.0173
 -0.0989  0.0316 -0.0082  0.0173  0.5419
 
 occupancies and eigenvectors
 
  o =  0.3938  v =  0.0000  0.0000  0.0000  0.0000  0.0000 -0.5410 -0.5588  0.3757  0.4250 -0.2709      0.0000  0.0000  0.0000  0.0000  0.0000  0.0000  0.0000  0.0000  0.0000  0.0000
  o =  0.4596  v =  0.0000  0.0000  0.0000  0.0000  0.0000  0.3643  0.3419  0.6503  0.5072  0.2651      0.0000  0.0000  0.0000  0.0000  0.0000  0.0000  0.0000  0.0000  0.0000  0.0000
  o =  0.4654  v =  0.0000  0.0000  0.0000  0.0000  0.0000  0.2653 -0.6689  0.0704 -0.1787  0.6673      0.0000  0.0000  0.0000  0.0000  0.0000  0.0000  0.0000  0.0000  0.0000  0.0000
  o =  0.6180  v =  0.0000  0.0000  0.0000  0.0000  0.0000  0.0321 -0.0024  0.6484 -0.7097 -0.2736      0.0000  0.0000  0.0000  0.0000  0.0000  0.0000  0.0000  0.0000  0.0000  0.0000
  o =  0.6758  v =  0.0000  0.0000  0.0000  0.0000  0.0000 -0.7094  0.3514  0.1031 -0.1626  0.5798      0.0000  0.0000  0.0000  0.0000  0.0000  0.0000  0.0000  0.0000  0.0000  0.0000
  o =  0.8436  v = -0.6999  0.3839  0.0403 -0.0863  0.5948  0.0000  0.0000  0.0000  0.0000  0.0000      0.0000  0.0000  0.0000  0.0000  0.0000  0.0000  0.0000  0.0000  0.0000  0.0000
  o =  0.8757  v =  0.0444 -0.0332 -0.6664  0.7097  0.2218  0.0000  0.0000  0.0000  0.0000  0.0000      0.0000  0.0000  0.0000  0.0000  0.0000  0.0000  0.0000  0.0000  0.0000  0.0000
  o =  0.9464  v =  0.2510  0.4814  0.6126  0.5738  0.0264  0.0000  0.0000  0.0000  0.0000  0.0000      0.0000  0.0000  0.0000  0.0000  0.0000  0.0000  0.0000  0.0000  0.0000  0.0000
  o =  0.9587  v =  0.0763 -0.7243  0.3788  0.1444  0.5525  0.0000  0.0000  0.0000  0.0000  0.0000      0.0000  0.0000  0.0000  0.0000  0.0000  0.0000  0.0000  0.0000  0.0000  0.0000
  o =  0.9841  v = -0.6629 -0.3086  0.1884  0.3726 -0.5395  0.0000  0.0000  0.0000  0.0000  0.0000      0.0000  0.0000  0.0000  0.0000  0.0000  0.0000  0.0000  0.0000  0.0000  0.0000
     EDDAV:  cpu time    6.9388: real time    7.1073
       DOS:  cpu time    0.0031: real time    0.0032
    CHARGE:  cpu time    0.2961: real time    0.3039
    MIXING:  cpu time    0.0020: real time    0.0020
    --------------------------------------------
      LOOP:  cpu time    7.4332: real time    7.7670

 eigenvalue-minimisations  :  7200
 total energy-change (2. order) : 0.1298304E+02  (-0.3226966E+01)
 number of electron      41.9999988 magnetization       5.3350731
 augmentation part        8.0358891 magnetization       4.8952295

 Broyden mixing:
  rms(total) = 0.12979E+01    rms(broyden)= 0.12978E+01
  rms(prec ) = 0.13524E+01
  weight for this iteration     100.00

 eigenvalues of (default mixing * dielectric matrix)
  average eigenvalue GAMMA=   0.4901
  0.5793  0.4010

 Free energy of the ion-electron system (eV)
  ---------------------------------------------------
  alpha Z        PSCENC =        14.98780954
  Ewald energy   TEWEN  =      3850.73002878
  -Hartree energ DENC   =     -6275.48268472
  -exchange      EXHF   =         0.00000000
  -V(xc)+E(xc)   XCENC  =        81.84981931
  PAW double counting   =      3062.41300445    -3132.99005032
  entropy T*S    EENTRO =        -0.01936269
  eigenvalues    EBANDS =      -359.86428463
  atomic energy  EATOM  =      2734.01625119
  Solvation  Ediel_sol  =         0.00000000
  ---------------------------------------------------
  free energy    TOTEN  =       -24.35946909 eV

  energy without entropy =      -24.34010641  energy(sigma->0) =      -24.34978775


--------------------------------------------------------------------------------------------------------




--------------------------------------- Iteration      1(   8)  ---------------------------------------


    POTLOK:  cpu time    0.1313: real time    0.1360
    SETDIJ:  cpu time    0.0055: real time    0.0057
atom =   1  type =  1  l = 2
 
 onsite density matrix
 
spin component  1
 
  0.8724 -0.0651  0.0361 -0.0471 -0.0298
 -0.0651  0.9938 -0.0918  0.0838 -0.0386
  0.0361 -0.0918  0.9415 -0.0793  0.0191
 -0.0471  0.0838 -0.0793  0.8692  0.0110
 -0.0298 -0.0386  0.0191  0.0110  0.8807
 
spin component  2
 
  0.6146  0.1335 -0.0615  0.1019  0.1363
  0.1335  0.3993  0.1668 -0.1372  0.0977
 -0.0615  0.1668  0.5252  0.1842 -0.0335
  0.1019 -0.1372  0.1842  0.6540 -0.0396
  0.1363  0.0977 -0.0335 -0.0396  0.5880
 
 occupancies and eigenvectors
 
  o =  0.1197  v =  0.0000  0.0000  0.0000  0.0000  0.0000 -0.3174  0.6790 -0.5176  0.4094 -0.0517      0.0000  0.0000  0.0000  0.0000  0.0000  0.0000  0.0000  0.0000  0.0000  0.0000
  o =  0.4499  v =  0.0000  0.0000  0.0000  0.0000  0.0000  0.5286  0.2716 -0.0430 -0.1934 -0.7795      0.0000  0.0000  0.0000  0.0000  0.0000  0.0000  0.0000  0.0000  0.0000  0.0000
  o =  0.6054  v =  0.0000  0.0000  0.0000  0.0000  0.0000  0.3261 -0.5648 -0.6881  0.3175 -0.0165      0.0000  0.0000  0.0000  0.0000  0.0000  0.0000  0.0000  0.0000  0.0000  0.0000
  o =  0.7986  v =  0.0000  0.0000  0.0000  0.0000  0.0000  0.5015  0.1533  0.4333  0.7068  0.1942      0.0000  0.0000  0.0000  0.0000  0.0000  0.0000  0.0000  0.0000  0.0000  0.0000
  o =  0.8043  v =  0.0575  0.2877 -0.3432 -0.8115  0.3708  0.0000  0.0000  0.0000  0.0000  0.0000      0.0000  0.0000  0.0000  0.0000  0.0000  0.0000  0.0000  0.0000  0.0000  0.0000
  o =  0.8076  v =  0.0000  0.0000  0.0000  0.0000  0.0000  0.5119  0.3502 -0.2627 -0.4411  0.5931      0.0000  0.0000  0.0000  0.0000  0.0000  0.0000  0.0000  0.0000  0.0000  0.0000
  o =  0.8167  v =  0.7721  0.2997  0.1268  0.3120  0.4480  0.0000  0.0000  0.0000  0.0000  0.0000      0.0000  0.0000  0.0000  0.0000  0.0000  0.0000  0.0000  0.0000  0.0000  0.0000
  o =  0.8773  v = -0.2813  0.5551  0.7686 -0.1484 -0.0007  0.0000  0.0000  0.0000  0.0000  0.0000      0.0000  0.0000  0.0000  0.0000  0.0000  0.0000  0.0000  0.0000  0.0000  0.0000
  o =  0.9133  v =  0.4860  0.2230 -0.0308 -0.2430 -0.8088  0.0000  0.0000  0.0000  0.0000  0.0000      0.0000  0.0000  0.0000  0.0000  0.0000  0.0000  0.0000  0.0000  0.0000  0.0000
  o =  1.1460  v = -0.2920  0.6852 -0.5239  0.4037 -0.0879  0.0000  0.0000  0.0000  0.0000  0.0000      0.0000  0.0000  0.0000  0.0000  0.0000  0.0000  0.0000  0.0000  0.0000  0.0000
atom =   2  type =  1  l = 2
 
 onsite density matrix
 
spin component  1
 
  0.8724  0.0651 -0.0361 -0.0471  0.0298
  0.0651  0.9938 -0.0918 -0.0838 -0.0386
 -0.0361 -0.0918  0.9415  0.0793  0.0191
 -0.0471 -0.0838  0.0793  0.8692 -0.0110
  0.0298 -0.0386  0.0191 -0.0110  0.8807
 
spin component  2
 
  0.6146 -0.1335  0.0615  0.1019 -0.1363
 -0.1335  0.3993  0.1668  0.1372  0.0977
  0.0615  0.1668  0.5252 -0.1842 -0.0335
  0.1019  0.1372 -0.1842  0.6540  0.0396
 -0.1363  0.0977 -0.0335  0.0396  0.5880
 
 occupancies and eigenvectors
 
  o =  0.1197  v =  0.0000  0.0000  0.0000  0.0000  0.0000  0.3174  0.6790 -0.5176 -0.4094 -0.0517      0.0000  0.0000  0.0000  0.0000  0.0000  0.0000  0.0000  0.0000  0.0000  0.0000
  o =  0.4499  v =  0.0000  0.0000  0.0000  0.0000  0.0000 -0.5286  0.2716 -0.0430  0.1934 -0.7795      0.0000  0.0000  0.0000  0.0000  0.0000  0.0000  0.0000  0.0000  0.0000  0.0000
  o =  0.6054  v =  0.0000  0.0000  0.0000  0.0000  0.0000 -0.3261 -0.5648 -0.6881 -0.3175 -0.0165      0.0000  0.0000  0.0000  0.0000  0.0000  0.0000  0.0000  0.0000  0.0000  0.0000
  o =  0.7986  v =  0.0000  0.0000  0.0000  0.0000  0.0000 -0.5015  0.1533  0.4333 -0.7068  0.1942      0.0000  0.0000  0.0000  0.0000  0.0000  0.0000  0.0000  0.0000  0.0000  0.0000
  o =  0.8043  v = -0.0575  0.2877 -0.3432  0.8115  0.3708  0.0000  0.0000  0.0000  0.0000  0.0000      0.0000  0.0000  0.0000  0.0000  0.0000  0.0000  0.0000  0.0000  0.0000  0.0000
  o =  0.8076  v =  0.0000  0.0000  0.0000  0.0000  0.0000 -0.5119  0.3502 -0.2627  0.4411  0.5931      0.0000  0.0000  0.0000  0.0000  0.0000  0.0000  0.0000  0.0000  0.0000  0.0000
  o =  0.8167  v =  0.7721 -0.2997 -0.1268  0.3120 -0.4480  0.0000  0.0000  0.0000  0.0000  0.0000      0.0000  0.0000  0.0000  0.0000  0.0000  0.0000  0.0000  0.0000  0.0000  0.0000
  o =  0.8773  v = -0.2813 -0.5551 -0.7686 -0.1484  0.0007  0.0000  0.0000  0.0000  0.0000  0.0000      0.0000  0.0000  0.0000  0.0000  0.0000  0.0000  0.0000  0.0000  0.0000  0.0000
  o =  0.9133  v =  0.4860 -0.2230  0.0308 -0.2430  0.8088  0.0000  0.0000  0.0000  0.0000  0.0000      0.0000  0.0000  0.0000  0.0000  0.0000  0.0000  0.0000  0.0000  0.0000  0.0000
  o =  1.1460  v = -0.2920 -0.6852  0.5239  0.4037  0.0879  0.0000  0.0000  0.0000  0.0000  0.0000      0.0000  0.0000  0.0000  0.0000  0.0000  0.0000  0.0000  0.0000  0.0000  0.0000
     EDDAV:  cpu time    8.2083: real time    8.4088
       DOS:  cpu time    0.0028: real time    0.0029
    CHARGE:  cpu time    0.2635: real time    0.2710
    MIXING:  cpu time    0.0021: real time    0.0021
    --------------------------------------------
      LOOP:  cpu time    8.6135: real time    8.8265

 eigenvalue-minimisations  :  9248
 total energy-change (2. order) : 0.8319634E+00  (-0.1417620E+01)
 number of electron      41.9999988 magnetization       4.8266048
 augmentation part        7.0349356 magnetization       4.3646927

 Broyden mixing:
  rms(total) = 0.65935E+00    rms(broyden)= 0.65931E+00
  rms(prec ) = 0.66932E+00
  weight for this iteration     100.00

 eigenvalues of (default mixing * dielectric matrix)
  average eigenvalue GAMMA=   0.7393
  1.2401  0.3448  0.6329

 Free energy of the ion-electron system (eV)
  ---------------------------------------------------
  alpha Z        PSCENC =        14.98780954
  Ewald energy   TEWEN  =      3850.73002878
  -Hartree energ DENC   =     -6291.38602115
  -exchange      EXHF   =         0.00000000
  -V(xc)+E(xc)   XCENC  =        83.25944328
  PAW double counting   =      3508.26099484    -3581.57808299
  entropy T*S    EENTRO =        -0.00664535
  eigenvalues    EBANDS =      -341.81128381
  atomic energy  EATOM  =      2734.01625119
  Solvation  Ediel_sol  =         0.00000000
  ---------------------------------------------------
  free energy    TOTEN  =       -23.52750566 eV

  energy without entropy =      -23.52086031  energy(sigma->0) =      -23.52418299


--------------------------------------------------------------------------------------------------------




--------------------------------------- Iteration      1(   9)  ---------------------------------------


    POTLOK:  cpu time    0.1350: real time    0.1394
    SETDIJ:  cpu time    0.0056: real time    0.0057
atom =   1  type =  1  l = 2
 
 onsite density matrix
 
spin component  1
 
  0.8240 -0.0274  0.0238 -0.0357  0.0228
 -0.0274  0.9097 -0.0567  0.0679  0.0019
  0.0238 -0.0567  0.9231 -0.0179  0.0036
 -0.0357  0.0679 -0.0179  0.8728 -0.0080
  0.0228  0.0019  0.0036 -0.0080  0.8533
 
spin component  2
 
  0.6660  0.1002 -0.0833  0.1424  0.1566
  0.1002  0.4637  0.2124 -0.1922  0.1148
 -0.0833  0.2124  0.5569  0.1721 -0.0243
  0.1424 -0.1922  0.1721  0.7176 -0.0540
  0.1566  0.1148 -0.0243 -0.0540  0.5817
 
 occupancies and eigenvectors
 
  o =  0.1122  v =  0.0000  0.0000  0.0000  0.0000  0.0000 -0.2995  0.6587 -0.5390  0.4293 -0.0396      0.0000  0.0000  0.0000  0.0000  0.0000  0.0000  0.0000  0.0000  0.0000  0.0000
  o =  0.4273  v =  0.0000  0.0000  0.0000  0.0000  0.0000  0.5051  0.2811 -0.0310 -0.1909 -0.7927      0.0000  0.0000  0.0000  0.0000  0.0000  0.0000  0.0000  0.0000  0.0000  0.0000
  o =  0.7271  v =  0.0000  0.0000  0.0000  0.0000  0.0000  0.2779 -0.5222 -0.8057 -0.0139  0.0268      0.0000  0.0000  0.0000  0.0000  0.0000  0.0000  0.0000  0.0000  0.0000  0.0000
  o =  0.7975  v = -0.8204  0.1538  0.1513 -0.4651  0.2532  0.0000  0.0000  0.0000  0.0000  0.0000      0.0000  0.0000  0.0000  0.0000  0.0000  0.0000  0.0000  0.0000  0.0000  0.0000
  o =  0.8177  v =  0.3414  0.6273  0.1808 -0.5501 -0.3932  0.0000  0.0000  0.0000  0.0000  0.0000      0.0000  0.0000  0.0000  0.0000  0.0000  0.0000  0.0000  0.0000  0.0000  0.0000
  o =  0.8450  v =  0.0000  0.0000  0.0000  0.0000  0.0000  0.7032  0.3885  0.0111 -0.0367  0.5942      0.0000  0.0000  0.0000  0.0000  0.0000  0.0000  0.0000  0.0000  0.0000  0.0000
  o =  0.8637  v =  0.3534  0.3174  0.1055 -0.0085  0.8736  0.0000  0.0000  0.0000  0.0000  0.0000      0.0000  0.0000  0.0000  0.0000  0.0000  0.0000  0.0000  0.0000  0.0000  0.0000
  o =  0.8744  v =  0.0000  0.0000  0.0000  0.0000  0.0000 -0.2887  0.2519 -0.2434 -0.8819  0.1272      0.0000  0.0000  0.0000  0.0000  0.0000  0.0000  0.0000  0.0000  0.0000  0.0000
  o =  0.8888  v = -0.1461  0.2419  0.7906  0.5300 -0.1191  0.0000  0.0000  0.0000  0.0000  0.0000      0.0000  0.0000  0.0000  0.0000  0.0000  0.0000  0.0000  0.0000  0.0000  0.0000
  o =  1.0152  v =  0.2533 -0.6508  0.5552 -0.4473  0.0626  0.0000  0.0000  0.0000  0.0000  0.0000      0.0000  0.0000  0.0000  0.0000  0.0000  0.0000  0.0000  0.0000  0.0000  0.0000
atom =   2  type =  1  l = 2
 
 onsite density matrix
 
spin component  1
 
  0.8240  0.0274 -0.0238 -0.0357 -0.0228
  0.0274  0.9097 -0.0567 -0.0679  0.0019
 -0.0238 -0.0567  0.9231  0.0179  0.0036
 -0.0357 -0.0679  0.0179  0.8728  0.0080
 -0.0228  0.0019  0.0036  0.0080  0.8533
 
spin component  2
 
  0.6660 -0.1002  0.0833  0.1424 -0.1566
 -0.1002  0.4637  0.2124  0.1922  0.1148
  0.0833  0.2124  0.5569 -0.1721 -0.0243
  0.1424  0.1922 -0.1721  0.7176  0.0540
 -0.1566  0.1148 -0.0243  0.0540  0.5817
 
 occupancies and eigenvectors
 
  o =  0.1122  v =  0.0000  0.0000  0.0000  0.0000  0.0000  0.2995  0.6587 -0.5390 -0.4293 -0.0396      0.0000  0.0000  0.0000  0.0000  0.0000  0.0000  0.0000  0.0000  0.0000  0.0000
  o =  0.4273  v =  0.0000  0.0000  0.0000  0.0000  0.0000 -0.5051  0.2811 -0.0310  0.1909 -0.7927      0.0000  0.0000  0.0000  0.0000  0.0000  0.0000  0.0000  0.0000  0.0000  0.0000
  o =  0.7271  v =  0.0000  0.0000  0.0000  0.0000  0.0000 -0.2779 -0.5222 -0.8057  0.0139  0.0268      0.0000  0.0000  0.0000  0.0000  0.0000  0.0000  0.0000  0.0000  0.0000  0.0000
  o =  0.7975  v =  0.8204  0.1538  0.1513  0.4651  0.2532  0.0000  0.0000  0.0000  0.0000  0.0000      0.0000  0.0000  0.0000  0.0000  0.0000  0.0000  0.0000  0.0000  0.0000  0.0000
  o =  0.8177  v = -0.3414  0.6273  0.1808  0.5501 -0.3932  0.0000  0.0000  0.0000  0.0000  0.0000      0.0000  0.0000  0.0000  0.0000  0.0000  0.0000  0.0000  0.0000  0.0000  0.0000
  o =  0.8450  v =  0.0000  0.0000  0.0000  0.0000  0.0000 -0.7032  0.3885  0.0111  0.0367  0.5942      0.0000  0.0000  0.0000  0.0000  0.0000  0.0000  0.0000  0.0000  0.0000  0.0000
  o =  0.8637  v = -0.3534  0.3174  0.1055  0.0085  0.8736  0.0000  0.0000  0.0000  0.0000  0.0000      0.0000  0.0000  0.0000  0.0000  0.0000  0.0000  0.0000  0.0000  0.0000  0.0000
  o =  0.8744  v =  0.0000  0.0000  0.0000  0.0000  0.0000  0.2887  0.2519 -0.2434  0.8819  0.1272      0.0000  0.0000  0.0000  0.0000  0.0000  0.0000  0.0000  0.0000  0.0000  0.0000
  o =  0.8888  v =  0.1461  0.2419  0.7906 -0.5300 -0.1191  0.0000  0.0000  0.0000  0.0000  0.0000      0.0000  0.0000  0.0000  0.0000  0.0000  0.0000  0.0000  0.0000  0.0000  0.0000
  o =  1.0152  v = -0.2533 -0.6508  0.5552  0.4473  0.0626  0.0000  0.0000  0.0000  0.0000  0.0000      0.0000  0.0000  0.0000  0.0000  0.0000  0.0000  0.0000  0.0000  0.0000  0.0000
     EDDAV:  cpu time    7.3673: real time    7.5462
       DOS:  cpu time    0.0027: real time    0.0028
    CHARGE:  cpu time    0.2605: real time    0.2682
    MIXING:  cpu time    0.0022: real time    0.0022
    --------------------------------------------
      LOOP:  cpu time    7.7733: real time    7.9644

 eigenvalue-minimisations  :  7816
 total energy-change (2. order) : 0.8223397E+00  (-0.2434685E+00)
 number of electron      41.9999988 magnetization       4.3854204
 augmentation part        7.2112742 magnetization       4.2136183

 Broyden mixing:
  rms(total) = 0.40836E+00    rms(broyden)= 0.40834E+00
  rms(prec ) = 0.41526E+00
  weight for this iteration     100.00

 eigenvalues of (default mixing * dielectric matrix)
  average eigenvalue GAMMA=   0.8098
  1.4335  0.9509  0.3733  0.4813

 Free energy of the ion-electron system (eV)
  ---------------------------------------------------
  alpha Z        PSCENC =        14.98780954
  Ewald energy   TEWEN  =      3850.73002878
  -Hartree energ DENC   =     -6295.81018995
  -exchange      EXHF   =         0.00000000
  -V(xc)+E(xc)   XCENC  =        83.99519098
  PAW double counting   =      3878.54887977    -3951.56418412
  entropy T*S    EENTRO =        -0.00391348
  eigenvalues    EBANDS =      -337.60503870
  atomic energy  EATOM  =      2734.01625119
  Solvation  Ediel_sol  =         0.00000000
  ---------------------------------------------------
  free energy    TOTEN  =       -22.70516600 eV

  energy without entropy =      -22.70125252  energy(sigma->0) =      -22.70320926


--------------------------------------------------------------------------------------------------------




--------------------------------------- Iteration      1(  10)  ---------------------------------------


    POTLOK:  cpu time    0.1323: real time    0.1368
    SETDIJ:  cpu time    0.0055: real time    0.0056
atom =   1  type =  1  l = 2
 
 onsite density matrix
 
spin component  1
 
  0.8154 -0.0233  0.0283 -0.0065  0.0619
 -0.0233  0.8938 -0.0565  0.0366  0.0283
  0.0283 -0.0565  0.9045 -0.0194  0.0033
 -0.0065  0.0366 -0.0194  0.9166 -0.0260
  0.0619  0.0283  0.0033 -0.0260  0.8043
 
spin component  2
 
  0.6816  0.0749 -0.1215  0.1373  0.1595
  0.0749  0.4913  0.2709 -0.1972  0.1221
 -0.1215  0.2709  0.5960  0.1958 -0.0174
  0.1373 -0.1972  0.1958  0.6941 -0.0533
  0.1595  0.1221 -0.0174 -0.0533  0.5891
 
 occupancies and eigenvectors
 
  o =  0.0751  v =  0.0000  0.0000  0.0000  0.0000  0.0000 -0.2817  0.6376 -0.5642  0.4408 -0.0374      0.0000  0.0000  0.0000  0.0000  0.0000  0.0000  0.0000  0.0000  0.0000  0.0000
  o =  0.4262  v =  0.0000  0.0000  0.0000  0.0000  0.0000  0.5025  0.3092  0.0034 -0.1885 -0.7851      0.0000  0.0000  0.0000  0.0000  0.0000  0.0000  0.0000  0.0000  0.0000  0.0000
  o =  0.7359  v = -0.6320 -0.2451  0.0252  0.1336  0.7225  0.0000  0.0000  0.0000  0.0000  0.0000      0.0000  0.0000  0.0000  0.0000  0.0000  0.0000  0.0000  0.0000  0.0000  0.0000
  o =  0.8321  v = -0.4776  0.5800  0.5905 -0.2143 -0.2020  0.0000  0.0000  0.0000  0.0000  0.0000      0.0000  0.0000  0.0000  0.0000  0.0000  0.0000  0.0000  0.0000  0.0000  0.0000
  o =  0.8363  v =  0.0000  0.0000  0.0000  0.0000  0.0000  0.2037 -0.5841 -0.7792 -0.0304 -0.0958      0.0000  0.0000  0.0000  0.0000  0.0000  0.0000  0.0000  0.0000  0.0000  0.0000
  o =  0.8510  v =  0.0000  0.0000  0.0000  0.0000  0.0000 -0.7897 -0.2050  0.0214 -0.2257 -0.5320      0.0000  0.0000  0.0000  0.0000  0.0000  0.0000  0.0000  0.0000  0.0000  0.0000
  o =  0.8635  v =  0.0000  0.0000  0.0000  0.0000  0.0000 -0.0553  0.3384 -0.2720 -0.8475  0.3002      0.0000  0.0000  0.0000  0.0000  0.0000  0.0000  0.0000  0.0000  0.0000  0.0000
  o =  0.8758  v = -0.5658 -0.4050 -0.3491 -0.2574 -0.5725  0.0000  0.0000  0.0000  0.0000  0.0000      0.0000  0.0000  0.0000  0.0000  0.0000  0.0000  0.0000  0.0000  0.0000  0.0000
  o =  0.9029  v = -0.0677 -0.3103  0.4236  0.7839 -0.3242  0.0000  0.0000  0.0000  0.0000  0.0000      0.0000  0.0000  0.0000  0.0000  0.0000  0.0000  0.0000  0.0000  0.0000  0.0000
  o =  0.9879  v = -0.2186  0.5858 -0.5911  0.5054 -0.0653  0.0000  0.0000  0.0000  0.0000  0.0000      0.0000  0.0000  0.0000  0.0000  0.0000  0.0000  0.0000  0.0000  0.0000  0.0000
atom =   2  type =  1  l = 2
 
 onsite density matrix
 
spin component  1
 
  0.8154  0.0233 -0.0283 -0.0065 -0.0619
  0.0233  0.8938 -0.0565 -0.0366  0.0283
 -0.0283 -0.0565  0.9045  0.0194  0.0033
 -0.0065 -0.0366  0.0194  0.9166  0.0260
 -0.0619  0.0283  0.0033  0.0260  0.8043
 
spin component  2
 
  0.6816 -0.0749  0.1215  0.1373 -0.1595
 -0.0749  0.4913  0.2709  0.1972  0.1221
  0.1215  0.2709  0.5960 -0.1958 -0.0174
  0.1373  0.1972 -0.1958  0.6941  0.0533
 -0.1595  0.1221 -0.0174  0.0533  0.5891
 
 occupancies and eigenvectors
 
  o =  0.0751  v =  0.0000  0.0000  0.0000  0.0000  0.0000  0.2817  0.6376 -0.5642 -0.4408 -0.0374      0.0000  0.0000  0.0000  0.0000  0.0000  0.0000  0.0000  0.0000  0.0000  0.0000
  o =  0.4262  v =  0.0000  0.0000  0.0000  0.0000  0.0000 -0.5025  0.3092  0.0034  0.1885 -0.7851      0.0000  0.0000  0.0000  0.0000  0.0000  0.0000  0.0000  0.0000  0.0000  0.0000
  o =  0.7359  v = -0.6320  0.2451 -0.0252  0.1336 -0.7225  0.0000  0.0000  0.0000  0.0000  0.0000      0.0000  0.0000  0.0000  0.0000  0.0000  0.0000  0.0000  0.0000  0.0000  0.0000
  o =  0.8321  v =  0.4776  0.5800  0.5905  0.2143 -0.2020  0.0000  0.0000  0.0000  0.0000  0.0000      0.0000  0.0000  0.0000  0.0000  0.0000  0.0000  0.0000  0.0000  0.0000  0.0000
  o =  0.8363  v =  0.0000  0.0000  0.0000  0.0000  0.0000 -0.2037 -0.5841 -0.7792  0.0304 -0.0958      0.0000  0.0000  0.0000  0.0000  0.0000  0.0000  0.0000  0.0000  0.0000  0.0000
  o =  0.8510  v =  0.0000  0.0000  0.0000  0.0000  0.0000  0.7897 -0.2050  0.0214  0.2257 -0.5320      0.0000  0.0000  0.0000  0.0000  0.0000  0.0000  0.0000  0.0000  0.0000  0.0000
  o =  0.8635  v =  0.0000  0.0000  0.0000  0.0000  0.0000  0.0553  0.3384 -0.2720  0.8475  0.3002      0.0000  0.0000  0.0000  0.0000  0.0000  0.0000  0.0000  0.0000  0.0000  0.0000
  o =  0.8758  v =  0.5658 -0.4050 -0.3491  0.2574 -0.5725  0.0000  0.0000  0.0000  0.0000  0.0000      0.0000  0.0000  0.0000  0.0000  0.0000  0.0000  0.0000  0.0000  0.0000  0.0000
  o =  0.9029  v = -0.0677  0.3103 -0.4236  0.7839  0.3242  0.0000  0.0000  0.0000  0.0000  0.0000      0.0000  0.0000  0.0000  0.0000  0.0000  0.0000  0.0000  0.0000  0.0000  0.0000
  o =  0.9879  v =  0.2186  0.5858 -0.5911 -0.5054 -0.0653  0.0000  0.0000  0.0000  0.0000  0.0000      0.0000  0.0000  0.0000  0.0000  0.0000  0.0000  0.0000  0.0000  0.0000  0.0000
     EDDAV:  cpu time    7.8624: real time    8.0547
       DOS:  cpu time    0.0022: real time    0.0023
    CHARGE:  cpu time    0.2274: real time    0.2342
    MIXING:  cpu time    0.0023: real time    0.0023
    --------------------------------------------
[...]
     16      -4.4090      1.00000
     17      -4.0135      1.00000
     18      -4.0135      1.00000
     19      -3.4131      1.00000
     20      -3.4131      1.00000
     21      -1.2419      0.00000
     22      -1.2419      0.00000
     23      -0.8035      0.00000
     24      -0.8035      0.00000
     25      -0.0719      0.00000
     26      -0.0719      0.00000
     27       1.8978      0.00000
     28       1.8978      0.00000
     29       2.8165      0.00000
     30       2.8165      0.00000
     31       3.3380      0.00000
     32       3.3380      0.00000

 k-point    46 :       0.2500    0.5000    0.0000
  band No.  band energies     occupation 
      1     -17.8492      1.00000
      2     -17.8492      1.00000
      3     -14.5552      1.00000
      4     -14.5552      1.00000
      5      -9.0253      1.00000
      6      -9.0253      1.00000
      7      -7.4263      1.00000
      8      -7.4263      1.00000
      9      -6.8615      1.00000
     10      -6.8615      1.00000
     11      -5.3814      1.00000
     12      -5.3814      1.00000
     13      -5.0152      1.00000
     14      -5.0152      1.00000
     15      -4.5092      1.00000
     16      -4.5092      1.00000
     17      -4.0237      1.00000
     18      -4.0237      1.00000
     19      -3.5514      1.00000
     20      -3.5514      1.00000
     21      -1.2690      0.00000
     22      -1.2690      0.00000
     23      -0.8362      0.00000
     24      -0.8362      0.00000
     25       0.1258      0.00000
     26       0.1258      0.00000
     27       1.7302      0.00000
     28       1.7302      0.00000
     29       2.9978      0.00000
     30       2.9978      0.00000
     31       3.5080      0.00000
     32       3.5080      0.00000

 k-point    47 :       0.3333    0.5000    0.0000
  band No.  band energies     occupation 
      1     -17.8111      1.00000
      2     -17.8111      1.00000
      3     -14.6553      1.00000
      4     -14.6553      1.00000
      5      -8.8401      1.00000
      6      -8.8401      1.00000
      7      -7.6356      1.00000
      8      -7.6356      1.00000
      9      -6.8913      1.00000
     10      -6.8913      1.00000
     11      -5.1924      1.00000
     12      -5.1924      1.00000
     13      -4.8380      1.00000
     14      -4.8380      1.00000
     15      -4.5471      1.00000
     16      -4.5471      1.00000
     17      -4.0598      1.00000
     18      -4.0598      1.00000
     19      -3.7006      1.00000
     20      -3.7006      1.00000
     21      -1.2687      0.00000
     22      -1.2687      0.00000
     23      -0.9001      0.00000
     24      -0.9001      0.00000
     25       0.3367      0.00000
     26       0.3367      0.00000
     27       1.6026      0.00000
     28       1.6026      0.00000
     29       3.1402      0.00000
     30       3.1402      0.00000
     31       3.7000      0.00000
     32       3.7000      0.00000

 k-point    48 :       0.4167    0.5000    0.0000
  band No.  band energies     occupation 
      1     -17.7821      1.00000
      2     -17.7821      1.00000
      3     -14.7283      1.00000
      4     -14.7283      1.00000
      5      -8.6717      1.00000
      6      -8.6717      1.00000
      7      -7.8079      1.00000
      8      -7.8079      1.00000
      9      -6.9132      1.00000
     10      -6.9132      1.00000
     11      -5.0611      1.00000
     12      -5.0611      1.00000
     13      -4.8034      1.00000
     14      -4.8034      1.00000
     15      -4.4475      1.00000
     16      -4.4475      1.00000
     17      -4.0868      1.00000
     18      -4.0868      1.00000
     19      -3.8378      1.00000
     20      -3.8378      1.00000
     21      -1.2643      0.00000
     22      -1.2643      0.00000
     23      -0.9509      0.00000
     24      -0.9509      0.00000
     25       0.5024      0.00000
     26       0.5024      0.00000
     27       1.5184      0.00000
     28       1.5184      0.00000
     29       3.1621      0.00000
     30       3.1621      0.00000
     31       3.8255      0.00000
     32       3.8255      0.00000

 k-point    49 :       0.5000    0.5000    0.0000
  band No.  band energies     occupation 
      1     -17.7713      1.00000
      2     -17.7713      1.00000
      3     -14.7550      1.00000
      4     -14.7550      1.00000
      5      -8.5950      1.00000
      6      -8.5950      1.00000
      7      -7.8839      1.00000
      8      -7.8839      1.00000
      9      -6.9214      1.00000
     10      -6.9214      1.00000
     11      -5.0063      1.00000
     12      -5.0063      1.00000
     13      -4.8161      1.00000
     14      -4.8161      1.00000
     15      -4.3947      1.00000
     16      -4.3947      1.00000
     17      -4.0582      1.00000
     18      -4.0582      1.00000
     19      -3.9237      1.00000
     20      -3.9237      1.00000
     21      -1.2645      0.00000
     22      -1.2645      0.00000
     23      -0.9678      0.00000
     24      -0.9678      0.00000
     25       0.5675      0.00000
     26       0.5675      0.00000
     27       1.4873      0.00000
     28       1.4873      0.00000
     29       3.1255      0.00000
     30       3.1255      0.00000
     31       3.9317      0.00000
     32       3.9317      0.00000


--------------------------------------------------------------------------------------------------------


 soft charge-density along one line, spin component           1
         0         1         2         3         4         5         6         7         8         9
 total charge-density along one line
 
 soft charge-density along one line, spin component           2
         0         1         2         3         4         5         6         7         8         9
 total charge-density along one line
 
 pseudopotential strength for first ion, spin component:           1
 -9.630   0.040  -0.018  -0.060  -0.272  -9.983   0.045  -0.018
  0.040  -9.824  -0.046   0.009  -0.037   0.045 -10.188  -0.044
 -0.018  -0.046 -10.459   0.267  -0.044  -0.018  -0.044 -10.803
 -0.060   0.009   0.267  -9.955   0.045  -0.060   0.007   0.259
 -0.272  -0.037  -0.044   0.045  -9.464  -0.280  -0.041  -0.042
 -9.983   0.045  -0.018  -0.060  -0.280 -10.296   0.050  -0.017
  0.045 -10.188  -0.044   0.007  -0.041   0.050 -10.516  -0.043
 -0.018  -0.044 -10.803   0.259  -0.042  -0.017  -0.043 -11.112
 -0.060   0.007   0.259 -10.316   0.049  -0.061   0.006   0.251
 -0.280  -0.041  -0.042   0.049  -9.811  -0.293  -0.046  -0.040
 -0.006   0.014   0.010   0.002  -0.001  -0.006   0.014   0.010
 -0.010   0.024   0.017   0.004  -0.002  -0.010   0.024   0.018
 -0.000  -0.000  -0.000  -0.000   0.000  -0.000  -0.000  -0.000
 -0.000  -0.000  -0.000  -0.000   0.000  -0.000  -0.000  -0.000
 -0.000  -0.000  -0.000  -0.000  -0.000  -0.000  -0.000  -0.000
 -0.000  -0.000  -0.000  -0.000   0.000  -0.000  -0.000  -0.000
 -0.000  -0.000  -0.000  -0.000   0.000  -0.000  -0.000  -0.000
 -0.000  -0.000  -0.000  -0.000  -0.000  -0.000  -0.000  -0.000
 pseudopotential strength for first ion, spin component:           2
 -8.821   0.163  -0.030  -0.149  -0.514  -9.200   0.167  -0.030
  0.163  -9.199   0.047  -0.059  -0.108   0.167  -9.588   0.048
 -0.030   0.047  -6.638  -1.135   0.188  -0.030   0.048  -7.020
 -0.149  -0.059  -1.135  -8.710   0.084  -0.148  -0.060  -1.138
 -0.514  -0.108   0.188   0.084  -8.451  -0.521  -0.112   0.189
 -9.200   0.167  -0.030  -0.148  -0.521  -9.537   0.173  -0.029
  0.167  -9.588   0.048  -0.060  -0.112   0.173  -9.939   0.050
 -0.030   0.048  -7.020  -1.138   0.189  -0.029   0.050  -7.341
 -0.148  -0.060  -1.138  -9.097   0.087  -0.149  -0.062  -1.151
 -0.521  -0.112   0.189   0.087  -8.825  -0.534  -0.117   0.192
 -0.003   0.012  -0.049   0.023  -0.002  -0.003   0.012  -0.049
 -0.006   0.022  -0.087   0.042  -0.003  -0.006   0.022  -0.087
 -0.000  -0.000  -0.000   0.000   0.000  -0.000  -0.000  -0.000
  0.000  -0.000  -0.000  -0.000   0.000   0.000  -0.000  -0.000
 -0.000   0.000  -0.000  -0.000  -0.000  -0.000   0.000  -0.000
 -0.000  -0.000   0.000   0.000   0.000  -0.000  -0.000   0.000
  0.000  -0.000  -0.000  -0.000   0.000   0.000  -0.000  -0.000
 -0.000   0.000   0.000  -0.000  -0.000  -0.000   0.000  -0.000
 total augmentation occupancy for first ion, spin component:           1
  2.282  -0.125   0.064   0.044   0.075  -1.418  -0.298  -0.040   0.090   0.836   0.053  -0.005   0.000   0.000   0.000   0.000
 -0.125   3.231  -0.112   0.084  -0.610  -0.331  -1.430   0.118  -0.015   0.962  -0.628   0.108   0.000   0.000   0.000   0.000
  0.064  -0.112   2.641   0.016  -0.004  -0.049   0.132  -1.463   0.299  -0.065   1.403  -0.157   0.000   0.000   0.000   0.000
  0.044   0.084   0.016   3.054   0.109   0.084  -0.036   0.290  -1.327  -0.414  -0.895   0.139   0.000   0.000   0.000   0.000
  0.075  -0.610  -0.004   0.109   2.318   0.850   0.914  -0.065  -0.420  -2.104   0.070  -0.006   0.000   0.000   0.000   0.000
 -1.418  -0.331  -0.049   0.084   0.850   2.171   0.619   0.031  -0.158  -1.395  -0.045   0.003   0.000   0.000   0.000   0.000
 -0.298  -1.430   0.132  -0.036   0.914   0.619   1.570  -0.151   0.000  -1.149   0.573  -0.106   0.000   0.000   0.000   0.000
 -0.040   0.118  -1.463   0.290  -0.065   0.031  -0.151   1.485  -0.270   0.071  -1.590   0.245   0.000   0.000   0.000   0.000
  0.090  -0.015   0.299  -1.327  -0.420  -0.158   0.000  -0.270   1.409   0.627   0.961  -0.172   0.000   0.000   0.000   0.000
  0.836   0.962  -0.065  -0.414  -2.104  -1.395  -1.149   0.071   0.627   3.254  -0.090   0.012   0.000   0.000   0.000   0.000
  0.053  -0.628   1.403  -0.895   0.070  -0.045   0.573  -1.590   0.961  -0.090   2.257  -0.367   0.000   0.000   0.000   0.000
 -0.005   0.108  -0.157   0.139  -0.006   0.003  -0.106   0.245  -0.172   0.012  -0.367   0.080   0.000   0.000   0.000   0.000
  0.000   0.000   0.000   0.000   0.000   0.000   0.000   0.000   0.000   0.000   0.000   0.000   0.425   0.049  -0.006  -0.054
  0.000   0.000   0.000   0.000   0.000   0.000   0.000   0.000   0.000   0.000   0.000   0.000   0.049   0.101   0.096  -0.008
  0.000   0.000   0.000   0.000   0.000   0.000   0.000   0.000   0.000   0.000   0.000   0.000  -0.006   0.096   0.406   0.001
  0.000   0.000   0.000   0.000   0.000   0.000   0.000   0.000   0.000   0.000   0.000   0.000  -0.054  -0.008   0.001   0.009
  0.000   0.000   0.000   0.000   0.000   0.000   0.000   0.000   0.000   0.000   0.000   0.000  -0.007  -0.013  -0.014   0.001
  0.000   0.000   0.000   0.000   0.000   0.000   0.000   0.000   0.000   0.000   0.000   0.000   0.001  -0.014  -0.052  -0.000
 total augmentation occupancy for first ion, spin component:           2
  0.145   0.035  -0.000  -0.032   0.195   0.068   0.021  -0.007  -0.005  -0.220   0.001   0.000   0.000   0.000   0.000   0.000
  0.035   0.317   0.075  -0.023   0.064   0.021  -0.143  -0.032  -0.007  -0.070   0.017  -0.004   0.000   0.000   0.000   0.000
 -0.000   0.075   1.584  -0.520   0.087  -0.001  -0.043  -0.493   0.122  -0.014   0.248   0.056   0.000   0.000   0.000   0.000
 -0.032  -0.023  -0.520   0.577  -0.010   0.006   0.007   0.132  -0.228   0.021  -0.096  -0.023   0.000   0.000   0.000   0.000
  0.195   0.064   0.087  -0.010   0.064  -0.223  -0.068  -0.019   0.042   0.191   0.019   0.004   0.000   0.000   0.000   0.000
  0.068   0.021  -0.001   0.006  -0.223  -0.219  -0.047   0.006   0.010   0.191  -0.000  -0.001   0.000   0.000   0.000   0.000
  0.021  -0.143  -0.043   0.007  -0.068  -0.047  -0.009   0.022   0.007   0.057  -0.011   0.006   0.000   0.000   0.000   0.000
 -0.007  -0.032  -0.493   0.132  -0.019   0.006   0.022   0.210  -0.077   0.003  -0.106  -0.017   0.000   0.000   0.000   0.000
 -0.005  -0.007   0.122  -0.228   0.042   0.010   0.007  -0.077   0.054  -0.045   0.035   0.008   0.000   0.000   0.000   0.000
 -0.220  -0.070  -0.014   0.021   0.191   0.191   0.057   0.003  -0.045  -0.335  -0.006  -0.001   0.000   0.000   0.000   0.000
  0.001   0.017   0.248  -0.096   0.019  -0.000  -0.011  -0.106   0.035  -0.006  -0.014   0.035   0.000   0.000   0.000   0.000
  0.000  -0.004   0.056  -0.023   0.004  -0.001   0.006  -0.017   0.008  -0.001   0.035  -0.005   0.000   0.000   0.000   0.000
  0.000   0.000   0.000   0.000   0.000   0.000   0.000   0.000   0.000   0.000   0.000   0.000  -0.005   0.001  -0.001   0.003
  0.000   0.000   0.000   0.000   0.000   0.000   0.000   0.000   0.000   0.000   0.000   0.000   0.001   0.001  -0.003   0.000
  0.000   0.000   0.000   0.000   0.000   0.000   0.000   0.000   0.000   0.000   0.000   0.000  -0.001  -0.003  -0.003  -0.000
  0.000   0.000   0.000   0.000   0.000   0.000   0.000   0.000   0.000   0.000   0.000   0.000   0.003   0.000  -0.000  -0.001
  0.000   0.000   0.000   0.000   0.000   0.000   0.000   0.000   0.000   0.000   0.000   0.000   0.000   0.001   0.001  -0.000
  0.000   0.000   0.000   0.000   0.000   0.000   0.000   0.000   0.000   0.000   0.000   0.000  -0.000   0.001   0.003   0.000


------------------------ aborting loop because EDIFF is reached ----------------------------------------


    CHARGE:  cpu time    0.2275: real time    0.2348
    FORLOC:  cpu time    0.0016: real time    0.0017
    FORNL :  cpu time    0.4512: real time    0.4594
    STRESS:  cpu time    1.1726: real time    1.1949
    FORCOR:  cpu time    0.1136: real time    0.1154
    FORHAR:  cpu time    0.0136: real time    0.0138
    MIXING:  cpu time    0.0033: real time    0.0034
    OFIELD:  cpu time    0.0000: real time    0.0000

  FORCE on cell =-STRESS in cart. coord.  units (eV):
  Direction    XX          YY          ZZ          XY          YZ          ZX
  --------------------------------------------------------------------------------------
  Alpha Z    15.69273    15.69273    15.69273
  Ewald    5900.91258  5969.95737 -7676.53214     0.00000    29.23084    -0.00000
  Hartree  6326.11138  6358.57238 -6033.87962    -0.00000    25.14077    -0.00000
  E(xc)    -176.59353  -176.42594  -178.58029    -0.00000    -0.10775     0.00000
  Local  -13051.56607-13149.98957 12853.86659     0.00000   -65.08587     0.00000
  n-local   275.82908   277.02077   268.69485     0.04681     3.73266    -0.08591
  augment   241.51804   241.16292   245.96154    -0.00000    -4.42317     0.00000
  Kinetic   468.07636   464.02214   504.74556    -0.46852    11.50998    -0.46481
  Fock        0.00000     0.00000     0.00000     0.00000     0.00000     0.00000
  -------------------------------------------------------------------------------------
  Total      -0.01942     0.01280    -0.03078     0.00000    -0.00254     0.00000
  in kB      -0.05969     0.03935    -0.09460     0.00000    -0.00779     0.00000
  external pressure =       -0.04 kB  Pullay stress =        0.00 kB


 VOLUME and BASIS-vectors are now :
 -----------------------------------------------------------------------------
  energy-cutoff  :  550.000000
  volume of cell :  521.252023
      direct lattice vectors                 reciprocal lattice vectors
     5.334221772  0.000000000  0.000000000     0.187468771  0.000000000  0.000000000
     0.000000000  5.428804233  0.000000000     0.000000000  0.184202627  0.000000000
     0.000000000  0.000000000 18.000000000     0.000000000  0.000000000  0.055555556

  length of vectors
     5.334221772  5.428804233 18.000000000     0.187468771  0.184202627  0.055555556


 FORCES acting on ions
    electron-ion (+dipol)            ewald-force                    non-local-force                 convergence-correction
 -----------------------------------------------------------------------------------------------
   -.111E-05 0.540E-06 -.253E-04   0.140E-10 0.648E-11 -.369E-10   0.000E+00 0.000E+00 0.000E+00   -.158E-07 -.692E-09 -.145E-07
   0.111E-05 0.540E-06 -.253E-04   -.139E-10 0.645E-11 -.369E-10   0.000E+00 0.000E+00 0.000E+00   0.158E-07 -.693E-09 -.145E-07
   -.212E+02 -.160E+02 -.242E+03   0.193E+02 0.135E+02 0.249E+03   0.197E+01 0.254E+01 -.678E+01   0.507E-04 0.461E-04 0.415E-04
   -.212E+02 0.160E+02 0.242E+03   0.193E+02 -.135E+02 -.249E+03   0.197E+01 -.254E+01 0.678E+01   0.507E-04 -.461E-04 -.415E-04
   0.212E+02 -.160E+02 -.242E+03   -.193E+02 0.135E+02 0.249E+03   -.197E+01 0.254E+01 -.678E+01   -.507E-04 0.461E-04 0.415E-04
   0.212E+02 0.160E+02 0.242E+03   -.193E+02 -.135E+02 -.249E+03   -.197E+01 -.254E+01 0.678E+01   -.507E-04 -.461E-04 -.415E-04
 -----------------------------------------------------------------------------------------------
   0.337E-11 0.244E-05 -.681E-04   0.178E-13 0.711E-14 0.000E+00   0.222E-15 0.000E+00 0.000E+00   0.108E-13 -.226E-09 -.577E-07
 
 
 POSITION                                       TOTAL-FORCE (eV/Angst)
 -----------------------------------------------------------------------------------
      2.66711      2.71440      9.61730         0.000000      0.000000      0.000000
      0.00000      0.00000      9.61730         0.000000      0.000000      0.000000
      4.71386      2.04732     10.15911         0.001758     -0.001922     -0.000370
      2.04675      0.66709      9.07549         0.001758      0.001922      0.000370
      3.28747      4.76172     10.15911        -0.001758     -0.001922     -0.000370
      0.62036      3.38149      9.07549        -0.001758      0.001922      0.000370
 -----------------------------------------------------------------------------------
    total drift:                                0.000000      0.000002     -0.000068


--------------------------------------------------------------------------------------------------------



  FREE ENERGIE OF THE ION-ELECTRON SYSTEM (eV)
  ---------------------------------------------------
  free  energy   TOTEN  =       -26.95570461 eV

  energy  without entropy=      -26.95570461  energy(sigma->0) =      -26.95570461
 
 d Force = 0.1316955E-03[-0.125E-05, 0.265E-03]  d Energy = 0.1523489E-03-0.207E-04
 d Force =-0.2993126E+01[-0.298E+01,-0.300E+01]  d Ewald  = 0.4583777E+01-0.758E+01


--------------------------------------------------------------------------------------------------------


    POTLOK:  cpu time    0.1184: real time    0.1213


--------------------------------------------------------------------------------------------------------


 Conjugate gradient step on ions:
 trial-energy change:   -0.000152  1 .order   -0.000151   -0.000323    0.000021
  (g-gl).g = 0.750E-03      g.g   = 0.254E-03  gl.gl    = 0.430E-02
 g(Force)  = 0.232E-03   g(Stress)= 0.220E-04 ortho     =-0.439E-04
 gamma     =   0.17458
 trial     =   1.31222
 opt step  =   1.23159  (harmonic =   1.23159) maximal distance =0.00285175
 next E    =   -26.955704   (d E  =  -0.00015)


--------------------------------------------------------------------------------------------------------


  
 reached required accuracy - stopping structural energy minimisation
     LOOP+:  cpu time  117.3932: real time  120.2831
    4ORBIT:  cpu time    0.0000: real time    0.0000

 total amount of memory used by VASP MPI-rank0    80752. kBytes
=======================================================================

   base      :      30000. kBytes
   nonl-proj :      28756. kBytes
   fftplans  :       2505. kBytes
   grid      :       6615. kBytes
   one-center:         31. kBytes
   wavefun   :      12845. kBytes
 
  
  
 General timing and accounting informations for this job:
 ========================================================
  
                  Total CPU time used (sec):     2133.754
                            User time (sec):     1974.686
                          System time (sec):      159.068
                         Elapsed time (sec):     2187.672
  
                   Maximum memory used (kb):      149240.
                   Average memory used (kb):           0.
  
                          Minor page faults:       400485
                          Major page faults:            0
                 Voluntary context switches:         6536
