unknown system
           1
     5.506401    0.000000    0.000000
     0.000000    5.506401    0.000000
     0.000000    0.000000   18.000000
   Co   S
   2   4
Direct configuration=     1
   0.50000000  0.50000000  0.53429442
   0.00000000  0.00000000  0.53429442
   0.88789300  0.38789300  0.56858918
   0.38789300  0.11210700  0.49999966
   0.61210700  0.88789300  0.56858918
   0.11210700  0.61210700  0.49999966
Direct configuration=     2
   0.50000000  0.50000000  0.53429442
   0.00000000  0.00000000  0.53429442
   0.88819523  0.38468557  0.56707803
   0.38819523  0.11531443  0.50151081
   0.61180477  0.88468557  0.56707803
   0.11180477  0.61531443  0.50151081
Direct configuration=     3
   0.50000000  0.50000000  0.53429442
   0.00000000  0.00000000  0.53429442
   0.88810270  0.38565483  0.56751776
   0.38810270  0.11434517  0.50107108
   0.61189730  0.88565483  0.56751776
   0.11189730  0.61434517  0.50107108
